MODEL 1
REMARK VINA RESULT:    -3.660      0.000      0.000
REMARK INTER + INTRA:          -4.479
REMARK INTER:                  -4.409
REMARK INTRA:                  -0.070
REMARK UNBOUND:                -0.070
REMARK SMILES CCOC(=O)C[NH3+]
REMARK SMILES IDX 5 1 4 2 3 3 2 4 1 5 6 6 7 7
REMARK H PARENT 7 8 7 9 7 10
ROOT
ATOM      1  O   UNL     1      82.483  85.634 119.904  1.00  0.00    -0.245 OA
ATOM      2  C   UNL     1      82.706  84.880 118.964  1.00  0.00     0.361 C 
ENDROOT
BRANCH   2   3
ATOM      3  O   UNL     1      82.142  83.650 118.788  1.00  0.00    -0.462 OA
BRANCH   3   4
ATOM      4  C   UNL     1      82.441  82.988 117.551  1.00  0.00     0.229 C 
ATOM      5  C   UNL     1      82.827  81.540 117.790  1.00  0.00     0.049 C 
ENDBRANCH   3   4
ENDBRANCH   2   3
BRANCH   2   6
ATOM      6  C   UNL     1      83.588  85.220 117.765  1.00  0.00     0.383 C 
BRANCH   6   7
ATOM      7  N   UNL     1      83.207  86.510 117.166  1.00  0.00    -0.348 N 
ATOM      8  H   UNL     1      82.642  86.344 116.333  1.00  0.00     0.344 HD
ATOM      9  H   UNL     1      84.048  87.027 116.909  1.00  0.00     0.344 HD
ATOM     10  H   UNL     1      82.667  87.051 117.841  1.00  0.00     0.344 HD
ENDBRANCH   6   7
ENDBRANCH   2   6
TORSDOF 4
ENDMDL
MODEL 2
REMARK VINA RESULT:    -3.593     19.122     19.497
REMARK INTER + INTRA:          -4.398
REMARK INTER:                  -4.293
REMARK INTRA:                  -0.105
REMARK UNBOUND:                -0.070
REMARK SMILES CCOC(=O)C[NH3+]
REMARK SMILES IDX 5 1 4 2 3 3 2 4 1 5 6 6 7 7
REMARK H PARENT 7 8 7 9 7 10
ROOT
ATOM      1  O   UNL     1      95.187  86.635 102.673  1.00  0.00    -0.245 OA
ATOM      2  C   UNL     1      94.179  85.939 102.636  1.00  0.00     0.361 C 
ENDROOT
BRANCH   2   3
ATOM      3  O   UNL     1      94.079  84.668 103.125  1.00  0.00    -0.462 OA
BRANCH   3   4
ATOM      4  C   UNL     1      95.082  83.741 102.687  1.00  0.00     0.229 C 
ATOM      5  C   UNL     1      94.482  82.682 101.780  1.00  0.00     0.049 C 
ENDBRANCH   3   4
ENDBRANCH   2   3
BRANCH   2   6
ATOM      6  C   UNL     1      92.819  86.401 102.118  1.00  0.00     0.383 C 
BRANCH   6   7
ATOM      7  N   UNL     1      91.883  85.273 101.986  1.00  0.00    -0.348 N 
ATOM      8  H   UNL     1      92.361  84.485 101.548  1.00  0.00     0.344 HD
ATOM      9  H   UNL     1      91.091  85.554 101.408  1.00  0.00     0.344 HD
ATOM     10  H   UNL     1      91.550  84.998 102.909  1.00  0.00     0.344 HD
ENDBRANCH   6   7
ENDBRANCH   2   6
TORSDOF 4
ENDMDL
MODEL 3
REMARK VINA RESULT:    -3.591     19.180     19.584
REMARK INTER + INTRA:          -4.396
REMARK INTER:                  -4.359
REMARK INTRA:                  -0.037
REMARK UNBOUND:                -0.070
REMARK SMILES CCOC(=O)C[NH3+]
REMARK SMILES IDX 5 1 4 2 3 3 2 4 1 5 6 6 7 7
REMARK H PARENT 7 8 7 9 7 10
ROOT
ATOM      1  O   UNL     1      94.984  86.592 102.524  1.00  0.00    -0.245 OA
ATOM      2  C   UNL     1      93.969  85.906 102.504  1.00  0.00     0.361 C 
ENDROOT
BRANCH   2   3
ATOM      3  O   UNL     1      93.877  84.618 102.947  1.00  0.00    -0.462 OA
BRANCH   3   4
ATOM      4  C   UNL     1      94.992  83.765 102.649  1.00  0.00     0.229 C 
ATOM      5  C   UNL     1      94.570  82.615 101.754  1.00  0.00     0.049 C 
ENDBRANCH   3   4
ENDBRANCH   2   3
BRANCH   2   6
ATOM      6  C   UNL     1      92.592  86.399 102.065  1.00  0.00     0.383 C 
BRANCH   6   7
ATOM      7  N   UNL     1      92.637  87.807 101.637  1.00  0.00    -0.348 N 
ATOM      8  H   UNL     1      93.319  87.911 100.885  1.00  0.00     0.344 HD
ATOM      9  H   UNL     1      92.909  88.394 102.426  1.00  0.00     0.344 HD
ATOM     10  H   UNL     1      91.716  88.090 101.303  1.00  0.00     0.344 HD
ENDBRANCH   6   7
ENDBRANCH   2   6
TORSDOF 4
ENDMDL
MODEL 4
REMARK VINA RESULT:    -3.505     12.510     13.065
REMARK INTER + INTRA:          -4.292
REMARK INTER:                  -4.271
REMARK INTRA:                  -0.021
REMARK UNBOUND:                -0.070
REMARK SMILES CCOC(=O)C[NH3+]
REMARK SMILES IDX 5 1 4 2 3 3 2 4 1 5 6 6 7 7
REMARK H PARENT 7 8 7 9 7 10
ROOT
ATOM      1  O   UNL     1      92.993  83.050 109.074  1.00  0.00    -0.245 OA
ATOM      2  C   UNL     1      93.083  83.966 109.883  1.00  0.00     0.361 C 
ENDROOT
BRANCH   2   3
ATOM      3  O   UNL     1      92.441  84.023 111.086  1.00  0.00    -0.462 OA
BRANCH   3   4
ATOM      4  C   UNL     1      91.294  84.882 111.152  1.00  0.00     0.229 C 
ATOM      5  C   UNL     1      90.508  84.639 112.427  1.00  0.00     0.049 C 
ENDBRANCH   3   4
ENDBRANCH   2   3
BRANCH   2   6
ATOM      6  C   UNL     1      94.005  85.173 109.733  1.00  0.00     0.383 C 
BRANCH   6   7
ATOM      7  N   UNL     1      95.396  84.760 109.486  1.00  0.00    -0.348 N 
ATOM      8  H   UNL     1      95.496  84.467 108.513  1.00  0.00     0.344 HD
ATOM      9  H   UNL     1      95.634  83.982 110.101  1.00  0.00     0.344 HD
ATOM     10  H   UNL     1      96.021  85.544 109.671  1.00  0.00     0.344 HD
ENDBRANCH   6   7
ENDBRANCH   2   6
TORSDOF 4
ENDMDL
MODEL 5
REMARK VINA RESULT:    -3.495     11.899     12.512
REMARK INTER + INTRA:          -4.280
REMARK INTER:                  -4.235
REMARK INTRA:                  -0.045
REMARK UNBOUND:                -0.070
REMARK SMILES CCOC(=O)C[NH3+]
REMARK SMILES IDX 5 1 4 2 3 3 2 4 1 5 6 6 7 7
REMARK H PARENT 7 8 7 9 7 10
ROOT
ATOM      1  O   UNL     1      92.050  83.978 111.640  1.00  0.00    -0.245 OA
ATOM      2  C   UNL     1      92.306  84.442 110.535  1.00  0.00     0.361 C 
ENDROOT
BRANCH   2   3
ATOM      3  O   UNL     1      91.569  85.390 109.887  1.00  0.00    -0.462 OA
BRANCH   3   4
ATOM      4  C   UNL     1      90.948  86.384 110.713  1.00  0.00     0.229 C 
ATOM      5  C   UNL     1      89.437  86.331 110.580  1.00  0.00     0.049 C 
ENDBRANCH   3   4
ENDBRANCH   2   3
BRANCH   2   6
ATOM      6  C   UNL     1      93.553  84.109 109.719  1.00  0.00     0.383 C 
BRANCH   6   7
ATOM      7  N   UNL     1      93.373  82.870 108.944  1.00  0.00    -0.348 N 
ATOM      8  H   UNL     1      92.475  82.899 108.461  1.00  0.00     0.344 HD
ATOM      9  H   UNL     1      93.394  82.069 109.575  1.00  0.00     0.344 HD
ATOM     10  H   UNL     1      94.124  82.785 108.261  1.00  0.00     0.344 HD
ENDBRANCH   6   7
ENDBRANCH   2   6
TORSDOF 4
ENDMDL
MODEL 6
REMARK VINA RESULT:    -3.471     18.858     19.160
REMARK INTER + INTRA:          -4.252
REMARK INTER:                  -4.177
REMARK INTRA:                  -0.075
REMARK UNBOUND:                -0.070
REMARK SMILES CCOC(=O)C[NH3+]
REMARK SMILES IDX 5 1 4 2 3 3 2 4 1 5 6 6 7 7
REMARK H PARENT 7 8 7 9 7 10
ROOT
ATOM      1  O   UNL     1      92.438  87.849 101.696  1.00  0.00    -0.245 OA
ATOM      2  C   UNL     1      93.293  87.238 102.326  1.00  0.00     0.361 C 
ENDROOT
BRANCH   2   3
ATOM      3  O   UNL     1      94.444  87.778 102.821  1.00  0.00    -0.462 OA
BRANCH   3   4
ATOM      4  C   UNL     1      94.534  87.876 104.250  1.00  0.00     0.229 C 
ATOM      5  C   UNL     1      94.183  89.275 104.721  1.00  0.00     0.049 C 
ENDBRANCH   3   4
ENDBRANCH   2   3
BRANCH   2   6
ATOM      6  C   UNL     1      93.183  85.777 102.752  1.00  0.00     0.383 C 
BRANCH   6   7
ATOM      7  N   UNL     1      91.842  85.235 102.476  1.00  0.00    -0.348 N 
ATOM      8  H   UNL     1      91.637  85.327 101.481  1.00  0.00     0.344 HD
ATOM      9  H   UNL     1      91.149  85.753 103.016  1.00  0.00     0.344 HD
ATOM     10  H   UNL     1      91.813  84.251 102.740  1.00  0.00     0.344 HD
ENDBRANCH   6   7
ENDBRANCH   2   6
TORSDOF 4
ENDMDL
MODEL 7
REMARK VINA RESULT:    -3.439      1.424      2.904
REMARK INTER + INTRA:          -4.213
REMARK INTER:                  -4.146
REMARK INTRA:                  -0.066
REMARK UNBOUND:                -0.070
REMARK SMILES CCOC(=O)C[NH3+]
REMARK SMILES IDX 5 1 4 2 3 3 2 4 1 5 6 6 7 7
REMARK H PARENT 7 8 7 9 7 10
ROOT
ATOM      1  O   UNL     1      82.146  83.405 118.722  1.00  0.00    -0.245 OA
ATOM      2  C   UNL     1      82.526  84.550 118.508  1.00  0.00     0.361 C 
ENDROOT
BRANCH   2   3
ATOM      3  O   UNL     1      82.487  85.577 119.407  1.00  0.00    -0.462 OA
BRANCH   3   4
ATOM      4  C   UNL     1      83.326  85.439 120.562  1.00  0.00     0.229 C 
ATOM      5  C   UNL     1      82.500  85.435 121.835  1.00  0.00     0.049 C 
ENDBRANCH   3   4
ENDBRANCH   2   3
BRANCH   2   6
ATOM      6  C   UNL     1      83.200  85.018 117.220  1.00  0.00     0.383 C 
BRANCH   6   7
ATOM      7  N   UNL     1      83.197  86.487 117.115  1.00  0.00    -0.348 N 
ATOM      8  H   UNL     1      82.347  86.856 117.541  1.00  0.00     0.344 HD
ATOM      9  H   UNL     1      83.231  86.757 116.132  1.00  0.00     0.344 HD
ATOM     10  H   UNL     1      84.012  86.863 117.600  1.00  0.00     0.344 HD
ENDBRANCH   6   7
ENDBRANCH   2   6
TORSDOF 4
ENDMDL
MODEL 8
REMARK VINA RESULT:    -3.411     19.717     20.194
REMARK INTER + INTRA:          -4.179
REMARK INTER:                  -4.159
REMARK INTRA:                  -0.020
REMARK UNBOUND:                -0.070
REMARK SMILES CCOC(=O)C[NH3+]
REMARK SMILES IDX 5 1 4 2 3 3 2 4 1 5 6 6 7 7
REMARK H PARENT 7 8 7 9 7 10
ROOT
ATOM      1  O   UNL     1      96.228  83.941 103.415  1.00  0.00    -0.245 OA
ATOM      2  C   UNL     1      95.542  83.361 102.582  1.00  0.00     0.361 C 
ENDROOT
BRANCH   2   3
ATOM      3  O   UNL     1      94.236  83.641 102.300  1.00  0.00    -0.462 OA
BRANCH   3   4
ATOM      4  C   UNL     1      93.544  84.459 103.254  1.00  0.00     0.229 C 
ATOM      5  C   UNL     1      92.236  84.971 102.681  1.00  0.00     0.049 C 
ENDBRANCH   3   4
ENDBRANCH   2   3
BRANCH   2   6
ATOM      6  C   UNL     1      96.051  82.274 101.637  1.00  0.00     0.383 C 
BRANCH   6   7
ATOM      7  N   UNL     1      97.430  81.878 101.968  1.00  0.00    -0.348 N 
ATOM      8  H   UNL     1      98.085  82.518 101.517  1.00  0.00     0.344 HD
ATOM      9  H   UNL     1      97.600  80.929 101.637  1.00  0.00     0.344 HD
ATOM     10  H   UNL     1      97.561  81.915 102.979  1.00  0.00     0.344 HD
ENDBRANCH   6   7
ENDBRANCH   2   6
TORSDOF 4
ENDMDL
MODEL 9
REMARK VINA RESULT:    -3.392      2.034      2.209
REMARK INTER + INTRA:          -4.156
REMARK INTER:                  -4.096
REMARK INTRA:                  -0.059
REMARK UNBOUND:                -0.070
REMARK SMILES CCOC(=O)C[NH3+]
REMARK SMILES IDX 5 1 4 2 3 3 2 4 1 5 6 6 7 7
REMARK H PARENT 7 8 7 9 7 10
ROOT
ATOM      1  O   UNL     1      84.398  85.651 118.408  1.00  0.00    -0.245 OA
ATOM      2  C   UNL     1      83.330  85.261 118.865  1.00  0.00     0.361 C 
ENDROOT
BRANCH   2   3
ATOM      3  O   UNL     1      82.316  84.707 118.138  1.00  0.00    -0.462 OA
BRANCH   3   4
ATOM      4  C   UNL     1      82.684  83.650 117.241  1.00  0.00     0.229 C 
ATOM      5  C   UNL     1      82.322  82.295 117.822  1.00  0.00     0.049 C 
ENDBRANCH   3   4
ENDBRANCH   2   3
BRANCH   2   6
ATOM      6  C   UNL     1      82.974  85.238 120.349  1.00  0.00     0.383 C 
BRANCH   6   7
ATOM      7  N   UNL     1      84.113  85.659 121.182  1.00  0.00    -0.348 N 
ATOM      8  H   UNL     1      84.324  86.640 120.997  1.00  0.00     0.344 HD
ATOM      9  H   UNL     1      84.927  85.088 120.958  1.00  0.00     0.344 HD
ATOM     10  H   UNL     1      83.875  85.542 122.166  1.00  0.00     0.344 HD
ENDBRANCH   6   7
ENDBRANCH   2   6
TORSDOF 4
ENDMDL
MODEL 10
REMARK VINA RESULT:    -3.376     19.179     19.595
REMARK INTER + INTRA:          -4.136
REMARK INTER:                  -4.077
REMARK INTRA:                  -0.059
REMARK UNBOUND:                -0.070
REMARK SMILES CCOC(=O)C[NH3+]
REMARK SMILES IDX 5 1 4 2 3 3 2 4 1 5 6 6 7 7
REMARK H PARENT 7 8 7 9 7 10
ROOT
ATOM      1  O   UNL     1      95.291  86.468 102.750  1.00  0.00    -0.245 OA
ATOM      2  C   UNL     1      95.405  85.566 103.571  1.00  0.00     0.361 C 
ENDROOT
BRANCH   2   3
ATOM      3  O   UNL     1      95.716  84.269 103.281  1.00  0.00    -0.462 OA
BRANCH   3   4
ATOM      4  C   UNL     1      95.499  83.853 101.925  1.00  0.00     0.229 C 
ATOM      5  C   UNL     1      94.404  82.805 101.848  1.00  0.00     0.049 C 
ENDBRANCH   3   4
ENDBRANCH   2   3
BRANCH   2   6
ATOM      6  C   UNL     1      95.309  85.747 105.084  1.00  0.00     0.383 C 
BRANCH   6   7
ATOM      7  N   UNL     1      96.210  84.823 105.793  1.00  0.00    -0.348 N 
ATOM      8  H   UNL     1      95.935  83.861 105.594  1.00  0.00     0.344 HD
ATOM      9  H   UNL     1      96.149  84.993 106.797  1.00  0.00     0.344 HD
ATOM     10  H   UNL     1      97.168  84.976 105.480  1.00  0.00     0.344 HD
ENDBRANCH   6   7
ENDBRANCH   2   6
TORSDOF 4
ENDMDL
MODEL 11
REMARK VINA RESULT:    -3.362     19.572     20.089
REMARK INTER + INTRA:          -4.120
REMARK INTER:                  -3.992
REMARK INTRA:                  -0.128
REMARK UNBOUND:                -0.070
REMARK SMILES CCOC(=O)C[NH3+]
REMARK SMILES IDX 5 1 4 2 3 3 2 4 1 5 6 6 7 7
REMARK H PARENT 7 8 7 9 7 10
ROOT
ATOM      1  O   UNL     1      95.986  84.223 103.795  1.00  0.00    -0.245 OA
ATOM      2  C   UNL     1      95.553  84.204 102.649  1.00  0.00     0.361 C 
ENDROOT
BRANCH   2   3
ATOM      3  O   UNL     1      94.984  85.262 102.002  1.00  0.00    -0.462 OA
BRANCH   3   4
ATOM      4  C   UNL     1      93.995  85.997 102.737  1.00  0.00     0.229 C 
ATOM      5  C   UNL     1      92.605  85.447 102.473  1.00  0.00     0.049 C 
ENDBRANCH   3   4
ENDBRANCH   2   3
BRANCH   2   6
ATOM      6  C   UNL     1      95.653  83.012 101.700  1.00  0.00     0.383 C 
BRANCH   6   7
ATOM      7  N   UNL     1      94.386  82.267 101.637  1.00  0.00    -0.348 N 
ATOM      8  H   UNL     1      94.576  81.267 101.703  1.00  0.00     0.344 HD
ATOM      9  H   UNL     1      93.917  82.466 100.753  1.00  0.00     0.344 HD
ATOM     10  H   UNL     1      93.786  82.551 102.411  1.00  0.00     0.344 HD
ENDBRANCH   6   7
ENDBRANCH   2   6
TORSDOF 4
ENDMDL
MODEL 12
REMARK VINA RESULT:    -3.343     19.046     19.371
REMARK INTER + INTRA:          -4.097
REMARK INTER:                  -4.041
REMARK INTRA:                  -0.056
REMARK UNBOUND:                -0.070
REMARK SMILES CCOC(=O)C[NH3+]
REMARK SMILES IDX 5 1 4 2 3 3 2 4 1 5 6 6 7 7
REMARK H PARENT 7 8 7 9 7 10
ROOT
ATOM      1  O   UNL     1      94.751  85.058 102.272  1.00  0.00    -0.245 OA
ATOM      2  C   UNL     1      94.083  86.079 102.390  1.00  0.00     0.361 C 
ENDROOT
BRANCH   2   3
ATOM      3  O   UNL     1      94.572  87.306 102.734  1.00  0.00    -0.462 OA
BRANCH   3   4
ATOM      4  C   UNL     1      94.548  87.629 104.132  1.00  0.00     0.229 C 
ATOM      5  C   UNL     1      94.152  89.078 104.347  1.00  0.00     0.049 C 
ENDBRANCH   3   4
ENDBRANCH   2   3
BRANCH   2   6
ATOM      6  C   UNL     1      92.591  86.185 102.085  1.00  0.00     0.383 C 
BRANCH   6   7
ATOM      7  N   UNL     1      91.868  84.976 102.515  1.00  0.00    -0.348 N 
ATOM      8  H   UNL     1      91.182  84.720 101.804  1.00  0.00     0.344 HD
ATOM      9  H   UNL     1      91.391  85.162 103.397  1.00  0.00     0.344 HD
ATOM     10  H   UNL     1      92.530  84.211 102.640  1.00  0.00     0.344 HD
ENDBRANCH   6   7
ENDBRANCH   2   6
TORSDOF 4
ENDMDL
MODEL 13
REMARK VINA RESULT:    -3.300     19.148     19.458
REMARK INTER + INTRA:          -4.045
REMARK INTER:                  -3.944
REMARK INTRA:                  -0.101
REMARK UNBOUND:                -0.070
REMARK SMILES CCOC(=O)C[NH3+]
REMARK SMILES IDX 5 1 4 2 3 3 2 4 1 5 6 6 7 7
REMARK H PARENT 7 8 7 9 7 10
ROOT
ATOM      1  O   UNL     1      95.639  87.501 103.512  1.00  0.00    -0.245 OA
ATOM      2  C   UNL     1      95.227  86.360 103.347  1.00  0.00     0.361 C 
ENDROOT
BRANCH   2   3
ATOM      3  O   UNL     1      94.463  85.940 102.296  1.00  0.00    -0.462 OA
BRANCH   3   4
ATOM      4  C   UNL     1      93.063  86.247 102.369  1.00  0.00     0.229 C 
ATOM      5  C   UNL     1      92.235  84.979 102.465  1.00  0.00     0.049 C 
ENDBRANCH   3   4
ENDBRANCH   2   3
BRANCH   2   6
ATOM      6  C   UNL     1      95.571  85.171 104.241  1.00  0.00     0.383 C 
BRANCH   6   7
ATOM      7  N   UNL     1      95.970  83.998 103.446  1.00  0.00    -0.348 N 
ATOM      8  H   UNL     1      95.796  83.148 103.983  1.00  0.00     0.344 HD
ATOM      9  H   UNL     1      96.963  84.061 103.222  1.00  0.00     0.344 HD
ATOM     10  H   UNL     1      95.427  83.972 102.583  1.00  0.00     0.344 HD
ENDBRANCH   6   7
ENDBRANCH   2   6
TORSDOF 4
ENDMDL
MODEL 14
REMARK VINA RESULT:    -3.288      2.467      3.588
REMARK INTER + INTRA:          -4.031
REMARK INTER:                  -3.943
REMARK INTRA:                  -0.089
REMARK UNBOUND:                -0.070
REMARK SMILES CCOC(=O)C[NH3+]
REMARK SMILES IDX 5 1 4 2 3 3 2 4 1 5 6 6 7 7
REMARK H PARENT 7 8 7 9 7 10
ROOT
ATOM      1  O   UNL     1      83.510  83.489 116.195  1.00  0.00    -0.245 OA
ATOM      2  C   UNL     1      82.741  83.609 117.141  1.00  0.00     0.361 C 
ENDROOT
BRANCH   2   3
ATOM      3  O   UNL     1      82.224  84.789 117.594  1.00  0.00    -0.462 OA
BRANCH   3   4
ATOM      4  C   UNL     1      82.572  85.160 118.935  1.00  0.00     0.229 C 
ATOM      5  C   UNL     1      84.053  85.468 119.046  1.00  0.00     0.049 C 
ENDBRANCH   3   4
ENDBRANCH   2   3
BRANCH   2   6
ATOM      6  C   UNL     1      82.145  82.448 117.933  1.00  0.00     0.383 C 
BRANCH   6   7
ATOM      7  N   UNL     1      83.024  81.268 117.901  1.00  0.00    -0.348 N 
ATOM      8  H   UNL     1      83.232  81.026 116.931  1.00  0.00     0.344 HD
ATOM      9  H   UNL     1      82.557  80.483 118.354  1.00  0.00     0.344 HD
ATOM     10  H   UNL     1      83.892  81.478 118.393  1.00  0.00     0.344 HD
ENDBRANCH   6   7
ENDBRANCH   2   6
TORSDOF 4
ENDMDL
MODEL 15
REMARK VINA RESULT:    -3.255     18.807     19.332
REMARK INTER + INTRA:          -3.990
REMARK INTER:                  -3.913
REMARK INTRA:                  -0.077
REMARK UNBOUND:                -0.070
REMARK SMILES CCOC(=O)C[NH3+]
REMARK SMILES IDX 5 1 4 2 3 3 2 4 1 5 6 6 7 7
REMARK H PARENT 7 8 7 9 7 10
ROOT
ATOM      1  O   UNL     1      96.432  83.332 102.688  1.00  0.00    -0.245 OA
ATOM      2  C   UNL     1      95.516  83.990 103.165  1.00  0.00     0.361 C 
ENDROOT
BRANCH   2   3
ATOM      3  O   UNL     1      94.199  83.875 102.822  1.00  0.00    -0.462 OA
BRANCH   3   4
ATOM      4  C   UNL     1      93.292  84.768 103.483  1.00  0.00     0.229 C 
ATOM      5  C   UNL     1      92.327  85.392 102.492  1.00  0.00     0.049 C 
ENDBRANCH   3   4
ENDBRANCH   2   3
BRANCH   2   6
ATOM      6  C   UNL     1      95.666  85.000 104.299  1.00  0.00     0.383 C 
BRANCH   6   7
ATOM      7  N   UNL     1      96.507  84.468 105.385  1.00  0.00    -0.348 N 
ATOM      8  H   UNL     1      97.378  84.109 104.994  1.00  0.00     0.344 HD
ATOM      9  H   UNL     1      96.011  83.714 105.860  1.00  0.00     0.344 HD
ATOM     10  H   UNL     1      96.713  85.212 106.050  1.00  0.00     0.344 HD
ENDBRANCH   6   7
ENDBRANCH   2   6
TORSDOF 4
ENDMDL
MODEL 16
REMARK VINA RESULT:    -3.234     10.105     10.620
REMARK INTER + INTRA:          -3.966
REMARK INTER:                  -3.900
REMARK INTRA:                  -0.066
REMARK UNBOUND:                -0.070
REMARK SMILES CCOC(=O)C[NH3+]
REMARK SMILES IDX 5 1 4 2 3 3 2 4 1 5 6 6 7 7
REMARK H PARENT 7 8 7 9 7 10
ROOT
ATOM      1  O   UNL     1      89.205  83.647 111.518  1.00  0.00    -0.245 OA
ATOM      2  C   UNL     1      89.667  84.776 111.398  1.00  0.00     0.361 C 
ENDROOT
BRANCH   2   3
ATOM      3  O   UNL     1      88.977  85.937 111.595  1.00  0.00    -0.462 OA
BRANCH   3   4
ATOM      4  C   UNL     1      89.268  87.008 110.687  1.00  0.00     0.229 C 
ATOM      5  C   UNL     1      88.016  87.450 109.952  1.00  0.00     0.049 C 
ENDBRANCH   3   4
ENDBRANCH   2   3
BRANCH   2   6
ATOM      6  C   UNL     1      91.130  85.091 111.096  1.00  0.00     0.383 C 
BRANCH   6   7
ATOM      7  N   UNL     1      91.781  83.984 110.376  1.00  0.00    -0.348 N 
ATOM      8  H   UNL     1      91.120  83.214 110.269  1.00  0.00     0.344 HD
ATOM      9  H   UNL     1      92.592  83.664 110.905  1.00  0.00     0.344 HD
ATOM     10  H   UNL     1      92.080  84.306 109.456  1.00  0.00     0.344 HD
ENDBRANCH   6   7
ENDBRANCH   2   6
TORSDOF 4
ENDMDL
MODEL 17
REMARK VINA RESULT:    -3.165     11.904     12.395
REMARK INTER + INTRA:          -3.883
REMARK INTER:                  -3.822
REMARK INTRA:                  -0.061
REMARK UNBOUND:                -0.070
REMARK SMILES CCOC(=O)C[NH3+]
REMARK SMILES IDX 5 1 4 2 3 3 2 4 1 5 6 6 7 7
REMARK H PARENT 7 8 7 9 7 10
ROOT
ATOM      1  O   UNL     1      92.683  86.036 110.334  1.00  0.00    -0.245 OA
ATOM      2  C   UNL     1      92.371  84.903 109.989  1.00  0.00     0.361 C 
ENDROOT
BRANCH   2   3
ATOM      3  O   UNL     1      91.450  84.112 110.613  1.00  0.00    -0.462 OA
BRANCH   3   4
ATOM      4  C   UNL     1      90.874  84.640 111.816  1.00  0.00     0.229 C 
ATOM      5  C   UNL     1      89.420  85.020 111.599  1.00  0.00     0.049 C 
ENDBRANCH   3   4
ENDBRANCH   2   3
BRANCH   2   6
ATOM      6  C   UNL     1      92.891  84.199 108.737  1.00  0.00     0.383 C 
BRANCH   6   7
ATOM      7  N   UNL     1      93.340  82.830 109.038  1.00  0.00    -0.348 N 
ATOM      8  H   UNL     1      92.570  82.303 109.450  1.00  0.00     0.344 HD
ATOM      9  H   UNL     1      94.119  82.864 109.695  1.00  0.00     0.344 HD
ATOM     10  H   UNL     1      93.641  82.375 108.177  1.00  0.00     0.344 HD
ENDBRANCH   6   7
ENDBRANCH   2   6
TORSDOF 4
ENDMDL
MODEL 18
REMARK VINA RESULT:    -3.106      1.920      3.077
REMARK INTER + INTRA:          -3.811
REMARK INTER:                  -3.702
REMARK INTRA:                  -0.109
REMARK UNBOUND:                -0.070
REMARK SMILES CCOC(=O)C[NH3+]
REMARK SMILES IDX 5 1 4 2 3 3 2 4 1 5 6 6 7 7
REMARK H PARENT 7 8 7 9 7 10
ROOT
ATOM      1  O   UNL     1      82.883  81.739 117.772  1.00  0.00    -0.245 OA
ATOM      2  C   UNL     1      82.909  82.802 117.163  1.00  0.00     0.361 C 
ENDROOT
BRANCH   2   3
ATOM      3  O   UNL     1      82.168  83.906 117.470  1.00  0.00    -0.462 OA
BRANCH   3   4
ATOM      4  C   UNL     1      82.143  84.288 118.852  1.00  0.00     0.229 C 
ATOM      5  C   UNL     1      83.269  85.256 119.167  1.00  0.00     0.049 C 
ENDBRANCH   3   4
ENDBRANCH   2   3
BRANCH   2   6
ATOM      6  C   UNL     1      83.847  83.118 116.000  1.00  0.00     0.383 C 
BRANCH   6   7
ATOM      7  N   UNL     1      83.260  84.118 115.093  1.00  0.00    -0.348 N 
ATOM      8  H   UNL     1      83.982  84.779 114.804  1.00  0.00     0.344 HD
ATOM      9  H   UNL     1      82.514  84.618 115.575  1.00  0.00     0.344 HD
ATOM     10  H   UNL     1      82.880  83.649 114.271  1.00  0.00     0.344 HD
ENDBRANCH   6   7
ENDBRANCH   2   6
TORSDOF 4
ENDMDL
MODEL 19
REMARK VINA RESULT:    -3.105     18.904     19.315
REMARK INTER + INTRA:          -3.811
REMARK INTER:                  -3.742
REMARK INTRA:                  -0.068
REMARK UNBOUND:                -0.070
REMARK SMILES CCOC(=O)C[NH3+]
REMARK SMILES IDX 5 1 4 2 3 3 2 4 1 5 6 6 7 7
REMARK H PARENT 7 8 7 9 7 10
ROOT
ATOM      1  O   UNL     1      94.047  83.053 101.636  1.00  0.00    -0.245 OA
ATOM      2  C   UNL     1      94.192  84.000 102.400  1.00  0.00     0.361 C 
ENDROOT
BRANCH   2   3
ATOM      3  O   UNL     1      95.202  84.134 103.308  1.00  0.00    -0.462 OA
BRANCH   3   4
ATOM      4  C   UNL     1      95.100  85.245 104.210  1.00  0.00     0.229 C 
ATOM      5  C   UNL     1      96.024  85.065 105.400  1.00  0.00     0.049 C 
ENDBRANCH   3   4
ENDBRANCH   2   3
BRANCH   2   6
ATOM      6  C   UNL     1      93.319  85.252 102.411  1.00  0.00     0.383 C 
BRANCH   6   7
ATOM      7  N   UNL     1      91.921  84.935 102.076  1.00  0.00    -0.348 N 
ATOM      8  H   UNL     1      91.345  85.768 102.198  1.00  0.00     0.344 HD
ATOM      9  H   UNL     1      91.583  84.195 102.691  1.00  0.00     0.344 HD
ATOM     10  H   UNL     1      91.867  84.623 101.107  1.00  0.00     0.344 HD
ENDBRANCH   6   7
ENDBRANCH   2   6
TORSDOF 4
ENDMDL
MODEL 20
REMARK VINA RESULT:    -3.097     12.792     13.502
REMARK INTER + INTRA:          -3.801
REMARK INTER:                  -3.730
REMARK INTRA:                  -0.071
REMARK UNBOUND:                -0.070
REMARK SMILES CCOC(=O)C[NH3+]
REMARK SMILES IDX 5 1 4 2 3 3 2 4 1 5 6 6 7 7
REMARK H PARENT 7 8 7 9 7 10
ROOT
ATOM      1  O   UNL     1      92.209  83.986 111.429  1.00  0.00    -0.245 OA
ATOM      2  C   UNL     1      92.608  84.667 110.492  1.00  0.00     0.361 C 
ENDROOT
BRANCH   2   3
ATOM      3  O   UNL     1      92.244  85.959 110.244  1.00  0.00    -0.462 OA
BRANCH   3   4
ATOM      4  C   UNL     1      93.259  86.807 109.689  1.00  0.00     0.229 C 
ATOM      5  C   UNL     1      93.631  87.913 110.660  1.00  0.00     0.049 C 
ENDBRANCH   3   4
ENDBRANCH   2   3
BRANCH   2   6
ATOM      6  C   UNL     1      93.659  84.224 109.478  1.00  0.00     0.383 C 
BRANCH   6   7
ATOM      7  N   UNL     1      93.416  82.846 109.019  1.00  0.00    -0.348 N 
ATOM      8  H   UNL     1      93.203  82.254 109.822  1.00  0.00     0.344 HD
ATOM      9  H   UNL     1      94.248  82.493 108.547  1.00  0.00     0.344 HD
ATOM     10  H   UNL     1      92.628  82.838 108.372  1.00  0.00     0.344 HD
ENDBRANCH   6   7
ENDBRANCH   2   6
TORSDOF 4
ENDMDL
