REMARK SMILES CCOC(=O)C[NH3+]
REMARK SMILES IDX 5 1 4 2 3 3 2 4 1 5 6 6 7 7
REMARK H PARENT 7 8 7 9 7 10
ROOT
ATOM      1  O   UNL     1       2.949   0.793   0.750  1.00  0.00    -0.245 OA
ATOM      2  C   UNL     1       2.426   0.013  -0.037  1.00  0.00     0.361 C 
ENDROOT
BRANCH   2   3
ATOM      3  O   UNL     1       1.088  -0.071  -0.294  1.00  0.00    -0.462 OA
BRANCH   3   4
ATOM      4  C   UNL     1       0.246   0.838   0.429  1.00  0.00     0.229 C 
ATOM      5  C   UNL     1      -0.095   0.286   1.801  1.00  0.00     0.049 C 
ENDBRANCH   3   4
ENDBRANCH   2   3
BRANCH   2   6
ATOM      6  C   UNL     1       3.187  -0.949  -0.946  1.00  0.00     0.383 C 
BRANCH   6   7
ATOM      7  N   UNL     1       4.396  -1.469  -0.286  1.00  0.00    -0.348 N 
ATOM      8  H   UNL     1       4.880  -2.107  -0.918  1.00  0.00     0.344 HD
ATOM      9  H   UNL     1       4.132  -1.967   0.564  1.00  0.00     0.344 HD
ATOM     10  H   UNL     1       5.013  -0.693  -0.048  1.00  0.00     0.344 HD
ENDBRANCH   6   7
ENDBRANCH   2   6
TORSDOF 4
