MODEL 1
REMARK VINA RESULT:    -5.256      0.000      0.000
REMARK INTER + INTRA:          -6.368
REMARK INTER:                  -6.332
REMARK INTRA:                  -0.036
REMARK UNBOUND:                -0.036
REMARK SMILES OC[C@H]1O[C@@H](O)[C@H](O)[C@@H](O)[C@@H]1O
REMARK SMILES IDX 4 1 11 2 9 3 3 4 7 5 5 6 2 7 1 8 6 10 12 12 8 14 10 16
REMARK H PARENT 1 9 6 11 12 13 8 15 10 17
ROOT
ATOM      1  O   UNL     1      93.450  85.146 105.040  1.00  0.00    -0.342 OA
ATOM      2  C   UNL     1      94.497  86.986 103.834  1.00  0.00     0.177 C 
ATOM      3  C   UNL     1      93.783  86.543 102.544  1.00  0.00     0.179 C 
ATOM      4  C   UNL     1      94.707  85.780 104.755  1.00  0.00     0.178 C 
ATOM      5  C   UNL     1      92.517  85.728 102.851  1.00  0.00     0.201 C 
ATOM      6  C   UNL     1      92.840  84.613 103.871  1.00  0.00     0.279 C 
ENDROOT
BRANCH   4   7
ATOM      7  C   UNL     1      95.331  86.197 106.091  1.00  0.00     0.191 C 
BRANCH   7   8
ATOM      8  O   UNL     1      95.640  85.032 106.859  1.00  0.00    -0.394 OA
ATOM      9  H   UNL     1      96.143  85.287 107.647  1.00  0.00     0.210 HD
ENDBRANCH   7   8
ENDBRANCH   4   7
BRANCH   6  10
ATOM     10  O   UNL     1      91.671  83.917 104.276  1.00  0.00    -0.366 OA
ATOM     11  H   UNL     1      91.918  83.055 104.644  1.00  0.00     0.213 HD
ENDBRANCH   6  10
BRANCH   2  12
ATOM     12  O   UNL     1      95.745  87.621 103.547  1.00  0.00    -0.387 OA
ATOM     13  H   UNL     1      96.411  87.327 104.189  1.00  0.00     0.211 HD
ENDBRANCH   2  12
BRANCH   5  14
ATOM     14  O   UNL     1      91.952  85.186 101.649  1.00  0.00    -0.385 OA
ATOM     15  H   UNL     1      92.210  85.738 100.893  1.00  0.00     0.211 HD
ENDBRANCH   5  14
BRANCH   3  16
ATOM     16  O   UNL     1      93.475  87.683 101.731  1.00  0.00    -0.387 OA
ATOM     17  H   UNL     1      92.811  87.436 101.068  1.00  0.00     0.211 HD
ENDBRANCH   3  16
TORSDOF 6
ENDMDL
MODEL 2
REMARK VINA RESULT:    -5.188      2.168      3.646
REMARK INTER + INTRA:          -6.286
REMARK INTER:                  -6.040
REMARK INTRA:                  -0.246
REMARK UNBOUND:                -0.036
REMARK SMILES OC[C@H]1O[C@@H](O)[C@H](O)[C@@H](O)[C@@H]1O
REMARK SMILES IDX 4 1 11 2 9 3 3 4 7 5 5 6 2 7 1 8 6 10 12 12 8 14 10 16
REMARK H PARENT 1 9 6 11 12 13 8 15 10 17
ROOT
ATOM      1  O   UNL     1      95.821  84.600 104.890  1.00  0.00    -0.342 OA
ATOM      2  C   UNL     1      95.306  86.059 103.008  1.00  0.00     0.177 C 
ATOM      3  C   UNL     1      94.615  87.046 103.966  1.00  0.00     0.179 C 
ATOM      4  C   UNL     1      95.234  84.639 103.579  1.00  0.00     0.178 C 
ATOM      5  C   UNL     1      95.135  86.895 105.405  1.00  0.00     0.201 C 
ATOM      6  C   UNL     1      95.110  85.407 105.821  1.00  0.00     0.279 C 
ENDROOT
BRANCH   4   7
ATOM      7  C   UNL     1      95.995  83.641 102.700  1.00  0.00     0.191 C 
BRANCH   7   8
ATOM      8  O   UNL     1      95.138  83.176 101.655  1.00  0.00    -0.394 OA
ATOM      9  H   UNL     1      94.805  83.933 101.149  1.00  0.00     0.210 HD
ENDBRANCH   7   8
ENDBRANCH   4   7
BRANCH   6  10
ATOM     10  O   UNL     1      95.700  85.210 107.097  1.00  0.00    -0.366 OA
ATOM     11  H   UNL     1      95.284  84.449 107.532  1.00  0.00     0.213 HD
ENDBRANCH   6  10
BRANCH   2  12
ATOM     12  O   UNL     1      94.725  86.104 101.704  1.00  0.00    -0.387 OA
ATOM     13  H   UNL     1      93.853  86.528 101.754  1.00  0.00     0.211 HD
ENDBRANCH   2  12
BRANCH   5  14
ATOM     14  O   UNL     1      94.372  87.702 106.312  1.00  0.00    -0.385 OA
ATOM     15  H   UNL     1      93.982  88.449 105.831  1.00  0.00     0.211 HD
ENDBRANCH   5  14
BRANCH   3  16
ATOM     16  O   UNL     1      94.784  88.391 103.499  1.00  0.00    -0.387 OA
ATOM     17  H   UNL     1      93.923  88.836 103.478  1.00  0.00     0.211 HD
ENDBRANCH   3  16
TORSDOF 6
ENDMDL
MODEL 3
REMARK VINA RESULT:    -5.024      2.090      3.825
REMARK INTER + INTRA:          -6.088
REMARK INTER:                  -5.848
REMARK INTRA:                  -0.241
REMARK UNBOUND:                -0.036
REMARK SMILES OC[C@H]1O[C@@H](O)[C@H](O)[C@@H](O)[C@@H]1O
REMARK SMILES IDX 4 1 11 2 9 3 3 4 7 5 5 6 2 7 1 8 6 10 12 12 8 14 10 16
REMARK H PARENT 1 9 6 11 12 13 8 15 10 17
ROOT
ATOM      1  O   UNL     1      93.405  85.487 101.991  1.00  0.00    -0.342 OA
ATOM      2  C   UNL     1      95.048  84.927 103.701  1.00  0.00     0.177 C 
ATOM      3  C   UNL     1      95.354  86.423 103.894  1.00  0.00     0.179 C 
ATOM      4  C   UNL     1      94.555  84.674 102.272  1.00  0.00     0.178 C 
ATOM      5  C   UNL     1      94.176  87.303 103.444  1.00  0.00     0.201 C 
ATOM      6  C   UNL     1      93.706  86.877 102.035  1.00  0.00     0.279 C 
ENDROOT
BRANCH   4   7
ATOM      7  C   UNL     1      94.149  83.210 102.070  1.00  0.00     0.191 C 
BRANCH   7   8
ATOM      8  O   UNL     1      95.283  82.456 101.636  1.00  0.00    -0.394 OA
ATOM      9  H   UNL     1      95.671  82.876 100.853  1.00  0.00     0.210 HD
ENDBRANCH   7   8
ENDBRANCH   4   7
BRANCH   6  10
ATOM     10  O   UNL     1      92.540  87.581 101.636  1.00  0.00    -0.366 OA
ATOM     11  H   UNL     1      92.791  88.451 101.287  1.00  0.00     0.213 HD
ENDBRANCH   6  10
BRANCH   2  12
ATOM     12  O   UNL     1      96.191  84.120 103.986  1.00  0.00    -0.387 OA
ATOM     13  H   UNL     1      95.903  83.277 104.371  1.00  0.00     0.211 HD
ENDBRANCH   2  12
BRANCH   5  14
ATOM     14  O   UNL     1      94.533  88.691 103.477  1.00  0.00    -0.385 OA
ATOM     15  H   UNL     1      95.446  88.798 103.169  1.00  0.00     0.211 HD
ENDBRANCH   5  14
BRANCH   3  16
ATOM     16  O   UNL     1      95.698  86.686 105.260  1.00  0.00    -0.387 OA
ATOM     17  H   UNL     1      95.015  87.245 105.663  1.00  0.00     0.211 HD
ENDBRANCH   3  16
TORSDOF 6
ENDMDL
MODEL 4
REMARK VINA RESULT:    -4.955      1.827      3.717
REMARK INTER + INTRA:          -6.005
REMARK INTER:                  -5.956
REMARK INTRA:                  -0.048
REMARK UNBOUND:                -0.036
REMARK SMILES OC[C@H]1O[C@@H](O)[C@H](O)[C@@H](O)[C@@H]1O
REMARK SMILES IDX 4 1 11 2 9 3 3 4 7 5 5 6 2 7 1 8 6 10 12 12 8 14 10 16
REMARK H PARENT 1 9 6 11 12 13 8 15 10 17
ROOT
ATOM      1  O   UNL     1      95.166  84.409 103.903  1.00  0.00    -0.342 OA
ATOM      2  C   UNL     1      94.126  86.174 102.584  1.00  0.00     0.177 C 
ATOM      3  C   UNL     1      94.365  87.170 103.733  1.00  0.00     0.179 C 
ATOM      4  C   UNL     1      93.997  84.753 103.143  1.00  0.00     0.178 C 
ATOM      5  C   UNL     1      95.521  86.718 104.640  1.00  0.00     0.201 C 
ATOM      6  C   UNL     1      95.327  85.240 105.046  1.00  0.00     0.279 C 
ENDROOT
BRANCH   4   7
ATOM      7  C   UNL     1      93.852  83.720 102.020  1.00  0.00     0.191 C 
BRANCH   7   8
ATOM      8  O   UNL     1      94.917  82.772 102.103  1.00  0.00    -0.394 OA
ATOM      9  H   UNL     1      94.939  82.386 102.993  1.00  0.00     0.210 HD
ENDBRANCH   7   8
ENDBRANCH   4   7
BRANCH   6  10
ATOM     10  O   UNL     1      96.438  84.748 105.781  1.00  0.00    -0.366 OA
ATOM     11  H   UNL     1      96.214  84.718 106.724  1.00  0.00     0.213 HD
ENDBRANCH   6  10
BRANCH   2  12
ATOM     12  O   UNL     1      92.966  86.522 101.826  1.00  0.00    -0.387 OA
ATOM     13  H   UNL     1      92.684  87.420 102.062  1.00  0.00     0.211 HD
ENDBRANCH   2  12
BRANCH   5  14
ATOM     14  O   UNL     1      95.629  87.565 105.793  1.00  0.00    -0.385 OA
ATOM     15  H   UNL     1      96.449  87.361 106.269  1.00  0.00     0.211 HD
ENDBRANCH   5  14
BRANCH   3  16
ATOM     16  O   UNL     1      94.608  88.482 103.209  1.00  0.00    -0.387 OA
ATOM     17  H   UNL     1      95.161  88.981 103.831  1.00  0.00     0.211 HD
ENDBRANCH   3  16
TORSDOF 6
ENDMDL
MODEL 5
REMARK VINA RESULT:    -4.860      1.977      3.182
REMARK INTER + INTRA:          -5.891
REMARK INTER:                  -5.645
REMARK INTRA:                  -0.245
REMARK UNBOUND:                -0.036
REMARK SMILES OC[C@H]1O[C@@H](O)[C@H](O)[C@@H](O)[C@@H]1O
REMARK SMILES IDX 4 1 11 2 9 3 3 4 7 5 5 6 2 7 1 8 6 10 12 12 8 14 10 16
REMARK H PARENT 1 9 6 11 12 13 8 15 10 17
ROOT
ATOM      1  O   UNL     1      94.243  87.456 104.190  1.00  0.00    -0.342 OA
ATOM      2  C   UNL     1      95.539  85.782 105.397  1.00  0.00     0.177 C 
ATOM      3  C   UNL     1      95.410  84.823 104.200  1.00  0.00     0.179 C 
ATOM      4  C   UNL     1      94.342  86.739 105.431  1.00  0.00     0.178 C 
ATOM      5  C   UNL     1      95.148  85.587 102.891  1.00  0.00     0.201 C 
ATOM      6  C   UNL     1      93.991  86.592 103.089  1.00  0.00     0.279 C 
ENDROOT
BRANCH   4   7
ATOM      7  C   UNL     1      94.481  87.771 106.555  1.00  0.00     0.191 C 
BRANCH   7   8
ATOM      8  O   UNL     1      94.065  87.190 107.792  1.00  0.00    -0.394 OA
ATOM      9  H   UNL     1      94.495  87.652 108.528  1.00  0.00     0.210 HD
ENDBRANCH   7   8
ENDBRANCH   4   7
BRANCH   6  10
ATOM     10  O   UNL     1      93.801  87.404 101.941  1.00  0.00    -0.366 OA
ATOM     11  H   UNL     1      94.622  87.880 101.741  1.00  0.00     0.213 HD
ENDBRANCH   6  10
BRANCH   2  12
ATOM     12  O   UNL     1      95.643  85.066 106.629  1.00  0.00    -0.387 OA
ATOM     13  H   UNL     1      95.673  85.696 107.367  1.00  0.00     0.211 HD
ENDBRANCH   2  12
BRANCH   5  14
ATOM     14  O   UNL     1      94.871  84.679 101.816  1.00  0.00    -0.385 OA
ATOM     15  H   UNL     1      95.301  84.995 101.006  1.00  0.00     0.211 HD
ENDBRANCH   5  14
BRANCH   3  16
ATOM     16  O   UNL     1      96.584  84.007 104.090  1.00  0.00    -0.387 OA
ATOM     17  H   UNL     1      96.502  83.425 103.319  1.00  0.00     0.211 HD
ENDBRANCH   3  16
TORSDOF 6
ENDMDL
MODEL 6
REMARK VINA RESULT:    -4.779      1.984      2.644
REMARK INTER + INTRA:          -5.793
REMARK INTER:                  -5.547
REMARK INTRA:                  -0.246
REMARK UNBOUND:                -0.036
REMARK SMILES OC[C@H]1O[C@@H](O)[C@H](O)[C@@H](O)[C@@H]1O
REMARK SMILES IDX 4 1 11 2 9 3 3 4 7 5 5 6 2 7 1 8 6 10 12 12 8 14 10 16
REMARK H PARENT 1 9 6 11 12 13 8 15 10 17
ROOT
ATOM      1  O   UNL     1      93.377  85.955 103.843  1.00  0.00    -0.342 OA
ATOM      2  C   UNL     1      95.572  85.015 104.325  1.00  0.00     0.177 C 
ATOM      3  C   UNL     1      95.257  83.817 103.411  1.00  0.00     0.179 C 
ATOM      4  C   UNL     1      94.274  85.587 104.903  1.00  0.00     0.178 C 
ATOM      5  C   UNL     1      94.179  84.168 102.373  1.00  0.00     0.201 C 
ATOM      6  C   UNL     1      92.971  84.833 103.069  1.00  0.00     0.279 C 
ENDROOT
BRANCH   4   7
ATOM      7  C   UNL     1      94.539  86.841 105.744  1.00  0.00     0.191 C 
BRANCH   7   8
ATOM      8  O   UNL     1      94.956  86.457 107.056  1.00  0.00    -0.394 OA
ATOM      9  H   UNL     1      94.226  86.007 107.509  1.00  0.00     0.210 HD
ENDBRANCH   7   8
ENDBRANCH   4   7
BRANCH   6  10
ATOM     10  O   UNL     1      92.008  85.286 102.130  1.00  0.00    -0.366 OA
ATOM     11  H   UNL     1      92.040  86.253 102.074  1.00  0.00     0.213 HD
ENDBRANCH   6  10
BRANCH   2  12
ATOM     12  O   UNL     1      96.469  84.648 105.375  1.00  0.00    -0.387 OA
ATOM     13  H   UNL     1      96.042  83.993 105.950  1.00  0.00     0.211 HD
ENDBRANCH   2  12
BRANCH   5  14
ATOM     14  O   UNL     1      93.780  83.004 101.636  1.00  0.00    -0.385 OA
ATOM     15  H   UNL     1      93.227  83.270 100.885  1.00  0.00     0.211 HD
ENDBRANCH   5  14
BRANCH   3  16
ATOM     16  O   UNL     1      96.453  83.353 102.771  1.00  0.00    -0.387 OA
ATOM     17  H   UNL     1      97.088  84.084 102.706  1.00  0.00     0.211 HD
ENDBRANCH   3  16
TORSDOF 6
ENDMDL
MODEL 7
REMARK VINA RESULT:    -4.769      2.223      3.858
REMARK INTER + INTRA:          -5.781
REMARK INTER:                  -5.544
REMARK INTRA:                  -0.237
REMARK UNBOUND:                -0.036
REMARK SMILES OC[C@H]1O[C@@H](O)[C@H](O)[C@@H](O)[C@@H]1O
REMARK SMILES IDX 4 1 11 2 9 3 3 4 7 5 5 6 2 7 1 8 6 10 12 12 8 14 10 16
REMARK H PARENT 1 9 6 11 12 13 8 15 10 17
ROOT
ATOM      1  O   UNL     1      95.027  87.558 103.259  1.00  0.00    -0.342 OA
ATOM      2  C   UNL     1      95.065  87.125 105.656  1.00  0.00     0.177 C 
ATOM      3  C   UNL     1      95.074  85.610 105.380  1.00  0.00     0.179 C 
ATOM      4  C   UNL     1      94.377  87.862 104.503  1.00  0.00     0.178 C 
ATOM      5  C   UNL     1      95.628  85.295 103.981  1.00  0.00     0.201 C 
ATOM      6  C   UNL     1      94.927  86.179 102.925  1.00  0.00     0.279 C 
ENDROOT
BRANCH   4   7
ATOM      7  C   UNL     1      94.431  89.381 104.697  1.00  0.00     0.191 C 
BRANCH   7   8
ATOM      8  O   UNL     1      95.675  89.742 105.300  1.00  0.00    -0.394 OA
ATOM      9  H   UNL     1      95.546  90.512 105.874  1.00  0.00     0.210 HD
ENDBRANCH   7   8
ENDBRANCH   4   7
BRANCH   6  10
ATOM     10  O   UNL     1      95.498  86.008 101.636  1.00  0.00    -0.366 OA
ATOM     11  H   UNL     1      96.464  85.969 101.713  1.00  0.00     0.213 HD
ENDBRANCH   6  10
BRANCH   2  12
ATOM     12  O   UNL     1      94.423  87.425 106.897  1.00  0.00    -0.387 OA
ATOM     13  H   UNL     1      94.975  88.040 107.405  1.00  0.00     0.211 HD
ENDBRANCH   2  12
BRANCH   5  14
ATOM     14  O   UNL     1      95.482  83.902 103.675  1.00  0.00    -0.385 OA
ATOM     15  H   UNL     1      96.193  83.626 103.075  1.00  0.00     0.211 HD
ENDBRANCH   5  14
BRANCH   3  16
ATOM     16  O   UNL     1      95.823  84.926 106.394  1.00  0.00    -0.387 OA
ATOM     17  H   UNL     1      96.079  85.556 107.086  1.00  0.00     0.211 HD
ENDBRANCH   3  16
TORSDOF 6
ENDMDL
MODEL 8
REMARK VINA RESULT:    -4.662      4.873      8.029
REMARK INTER + INTRA:          -5.652
REMARK INTER:                  -5.398
REMARK INTRA:                  -0.254
REMARK UNBOUND:                -0.036
REMARK SMILES OC[C@H]1O[C@@H](O)[C@H](O)[C@@H](O)[C@@H]1O
REMARK SMILES IDX 4 1 11 2 9 3 3 4 7 5 5 6 2 7 1 8 6 10 12 12 8 14 10 16
REMARK H PARENT 1 9 6 11 12 13 8 15 10 17
ROOT
ATOM      1  O   UNL     1      95.915  88.551 109.970  1.00  0.00    -0.342 OA
ATOM      2  C   UNL     1      97.201  86.786 108.889  1.00  0.00     0.177 C 
ATOM      3  C   UNL     1      98.227  86.835 110.035  1.00  0.00     0.179 C 
ATOM      4  C   UNL     1      96.526  88.153 108.732  1.00  0.00     0.178 C 
ATOM      5  C   UNL     1      97.610  87.410 111.321  1.00  0.00     0.201 C 
ATOM      6  C   UNL     1      96.870  88.730 111.008  1.00  0.00     0.279 C 
ENDROOT
BRANCH   4   7
ATOM      7  C   UNL     1      95.429  88.118 107.663  1.00  0.00     0.191 C 
BRANCH   7   8
ATOM      8  O   UNL     1      94.902  86.794 107.563  1.00  0.00    -0.394 OA
ATOM      9  H   UNL     1      95.529  86.165 107.951  1.00  0.00     0.210 HD
ENDBRANCH   7   8
ENDBRANCH   4   7
BRANCH   6  10
ATOM     10  O   UNL     1      96.181  89.227 112.145  1.00  0.00    -0.366 OA
ATOM     11  H   UNL     1      96.399  88.684 112.919  1.00  0.00     0.213 HD
ENDBRANCH   6  10
BRANCH   2  12
ATOM     12  O   UNL     1      97.810  86.385 107.661  1.00  0.00    -0.387 OA
ATOM     13  H   UNL     1      98.671  86.822 107.570  1.00  0.00     0.211 HD
ENDBRANCH   2  12
BRANCH   5  14
ATOM     14  O   UNL     1      98.612  87.600 112.329  1.00  0.00    -0.385 OA
ATOM     15  H   UNL     1      99.182  86.816 112.372  1.00  0.00     0.211 HD
ENDBRANCH   5  14
BRANCH   3  16
ATOM     16  O   UNL     1      98.774  85.531 110.268  1.00  0.00    -0.387 OA
ATOM     17  H   UNL     1      99.363  85.292 109.535  1.00  0.00     0.211 HD
ENDBRANCH   3  16
TORSDOF 6
ENDMDL
MODEL 9
REMARK VINA RESULT:    -4.604      1.939      3.137
REMARK INTER + INTRA:          -5.582
REMARK INTER:                  -5.534
REMARK INTRA:                  -0.049
REMARK UNBOUND:                -0.036
REMARK SMILES OC[C@H]1O[C@@H](O)[C@H](O)[C@@H](O)[C@@H]1O
REMARK SMILES IDX 4 1 11 2 9 3 3 4 7 5 5 6 2 7 1 8 6 10 12 12 8 14 10 16
REMARK H PARENT 1 9 6 11 12 13 8 15 10 17
ROOT
ATOM      1  O   UNL     1      95.124  86.742 105.332  1.00  0.00    -0.342 OA
ATOM      2  C   UNL     1      94.145  87.024 103.119  1.00  0.00     0.177 C 
ATOM      3  C   UNL     1      94.882  85.762 102.635  1.00  0.00     0.179 C 
ATOM      4  C   UNL     1      94.927  87.680 104.262  1.00  0.00     0.178 C 
ATOM      5  C   UNL     1      95.232  84.829 103.806  1.00  0.00     0.201 C 
ATOM      6  C   UNL     1      95.918  85.631 104.934  1.00  0.00     0.279 C 
ENDROOT
BRANCH   4   7
ATOM      7  C   UNL     1      94.177  88.887 104.834  1.00  0.00     0.191 C 
BRANCH   7   8
ATOM      8  O   UNL     1      93.865  88.648 106.208  1.00  0.00    -0.394 OA
ATOM      9  H   UNL     1      93.244  87.907 106.275  1.00  0.00     0.210 HD
ENDBRANCH   7   8
ENDBRANCH   4   7
BRANCH   6  10
ATOM     10  O   UNL     1      96.144  84.831 106.084  1.00  0.00    -0.366 OA
ATOM     11  H   UNL     1      97.093  84.647 106.169  1.00  0.00     0.213 HD
ENDBRANCH   6  10
BRANCH   2  12
ATOM     12  O   UNL     1      93.946  87.953 102.051  1.00  0.00    -0.387 OA
ATOM     13  H   UNL     1      93.028  87.895 101.741  1.00  0.00     0.211 HD
ENDBRANCH   2  12
BRANCH   5  14
ATOM     14  O   UNL     1      96.056  83.741 103.364  1.00  0.00    -0.385 OA
ATOM     15  H   UNL     1      96.584  84.024 102.601  1.00  0.00     0.211 HD
ENDBRANCH   5  14
BRANCH   3  16
ATOM     16  O   UNL     1      94.098  85.077 101.650  1.00  0.00    -0.387 OA
ATOM     17  H   UNL     1      93.166  85.081 101.920  1.00  0.00     0.211 HD
ENDBRANCH   3  16
TORSDOF 6
ENDMDL
MODEL 10
REMARK VINA RESULT:    -4.587      3.745      6.285
REMARK INTER + INTRA:          -5.562
REMARK INTER:                  -5.342
REMARK INTRA:                  -0.221
REMARK UNBOUND:                -0.036
REMARK SMILES OC[C@H]1O[C@@H](O)[C@H](O)[C@@H](O)[C@@H]1O
REMARK SMILES IDX 4 1 11 2 9 3 3 4 7 5 5 6 2 7 1 8 6 10 12 12 8 14 10 16
REMARK H PARENT 1 9 6 11 12 13 8 15 10 17
ROOT
ATOM      1  O   UNL     1      96.393  85.936 108.660  1.00  0.00    -0.342 OA
ATOM      2  C   UNL     1      96.818  87.315 106.698  1.00  0.00     0.177 C 
ATOM      3  C   UNL     1      97.463  88.388 107.594  1.00  0.00     0.179 C 
ATOM      4  C   UNL     1      95.782  86.519 107.498  1.00  0.00     0.178 C 
ATOM      5  C   UNL     1      97.979  87.786 108.912  1.00  0.00     0.201 C 
ATOM      6  C   UNL     1      96.877  86.922 109.565  1.00  0.00     0.279 C 
ENDROOT
BRANCH   4   7
ATOM      7  C   UNL     1      95.185  85.379 106.666  1.00  0.00     0.191 C 
BRANCH   7   8
ATOM      8  O   UNL     1      96.211  84.780 105.871  1.00  0.00    -0.394 OA
ATOM      9  H   UNL     1      96.146  85.106 104.960  1.00  0.00     0.210 HD
ENDBRANCH   7   8
ENDBRANCH   4   7
BRANCH   6  10
ATOM     10  O   UNL     1      97.354  86.247 110.719  1.00  0.00    -0.366 OA
ATOM     11  H   UNL     1      96.937  85.374 110.780  1.00  0.00     0.213 HD
ENDBRANCH   6  10
BRANCH   2  12
ATOM     12  O   UNL     1      96.217  87.897 105.540  1.00  0.00    -0.387 OA
ATOM     13  H   UNL     1      96.897  88.050 104.865  1.00  0.00     0.211 HD
ENDBRANCH   2  12
BRANCH   5  14
ATOM     14  O   UNL     1      98.429  88.815 109.803  1.00  0.00    -0.385 OA
ATOM     15  H   UNL     1      99.400  88.826 109.821  1.00  0.00     0.211 HD
ENDBRANCH   5  14
BRANCH   3  16
ATOM     16  O   UNL     1      98.518  89.055 106.889  1.00  0.00    -0.387 OA
ATOM     17  H   UNL     1      99.326  88.521 106.936  1.00  0.00     0.211 HD
ENDBRANCH   3  16
TORSDOF 6
ENDMDL
MODEL 11
REMARK VINA RESULT:    -4.547      1.995      4.203
REMARK INTER + INTRA:          -5.513
REMARK INTER:                  -5.465
REMARK INTRA:                  -0.049
REMARK UNBOUND:                -0.036
REMARK SMILES OC[C@H]1O[C@@H](O)[C@H](O)[C@@H](O)[C@@H]1O
REMARK SMILES IDX 4 1 11 2 9 3 3 4 7 5 5 6 2 7 1 8 6 10 12 12 8 14 10 16
REMARK H PARENT 1 9 6 11 12 13 8 15 10 17
ROOT
ATOM      1  O   UNL     1      93.391  85.474 104.455  1.00  0.00    -0.342 OA
ATOM      2  C   UNL     1      94.864  84.198 102.993  1.00  0.00     0.177 C 
ATOM      3  C   UNL     1      96.059  84.545 103.898  1.00  0.00     0.179 C 
ATOM      4  C   UNL     1      93.799  85.295 103.090  1.00  0.00     0.178 C 
ATOM      5  C   UNL     1      95.605  84.889 105.326  1.00  0.00     0.201 C 
ATOM      6  C   UNL     1      94.459  85.924 105.280  1.00  0.00     0.279 C 
ENDROOT
BRANCH   4   7
ATOM      7  C   UNL     1      92.551  84.940 102.275  1.00  0.00     0.191 C 
BRANCH   7   8
ATOM      8  O   UNL     1      91.420  84.855 103.145  1.00  0.00    -0.394 OA
ATOM      9  H   UNL     1      90.831  85.608 102.985  1.00  0.00     0.210 HD
ENDBRANCH   7   8
ENDBRANCH   4   7
BRANCH   6  10
ATOM     10  O   UNL     1      93.926  86.174 106.572  1.00  0.00    -0.366 OA
ATOM     11  H   UNL     1      94.512  86.780 107.052  1.00  0.00     0.213 HD
ENDBRANCH   6  10
BRANCH   2  12
ATOM     12  O   UNL     1      95.273  84.016 101.636  1.00  0.00    -0.387 OA
ATOM     13  H   UNL     1      94.816  83.246 101.262  1.00  0.00     0.211 HD
ENDBRANCH   2  12
BRANCH   5  14
ATOM     14  O   UNL     1      96.706  85.365 106.113  1.00  0.00    -0.385 OA
ATOM     15  H   UNL     1      96.945  86.261 105.826  1.00  0.00     0.211 HD
ENDBRANCH   5  14
BRANCH   3  16
ATOM     16  O   UNL     1      97.004  83.467 103.907  1.00  0.00    -0.387 OA
ATOM     17  H   UNL     1      96.918  82.956 103.087  1.00  0.00     0.211 HD
ENDBRANCH   3  16
TORSDOF 6
ENDMDL
MODEL 12
REMARK VINA RESULT:    -4.522      2.181      2.402
REMARK INTER + INTRA:          -5.483
REMARK INTER:                  -5.270
REMARK INTRA:                  -0.213
REMARK UNBOUND:                -0.036
REMARK SMILES OC[C@H]1O[C@@H](O)[C@H](O)[C@@H](O)[C@@H]1O
REMARK SMILES IDX 4 1 11 2 9 3 3 4 7 5 5 6 2 7 1 8 6 10 12 12 8 14 10 16
REMARK H PARENT 1 9 6 11 12 13 8 15 10 17
ROOT
ATOM      1  O   UNL     1      95.278  84.809 105.117  1.00  0.00    -0.342 OA
ATOM      2  C   UNL     1      95.108  87.227 105.360  1.00  0.00     0.177 C 
ATOM      3  C   UNL     1      95.307  87.391 103.842  1.00  0.00     0.179 C 
ATOM      4  C   UNL     1      95.788  85.941 105.840  1.00  0.00     0.178 C 
ATOM      5  C   UNL     1      94.906  86.118 103.080  1.00  0.00     0.201 C 
ATOM      6  C   UNL     1      95.572  84.883 103.727  1.00  0.00     0.279 C 
ENDROOT
BRANCH   4   7
ATOM      7  C   UNL     1      95.532  85.694 107.330  1.00  0.00     0.191 C 
BRANCH   7   8
ATOM      8  O   UNL     1      96.637  86.184 108.093  1.00  0.00    -0.394 OA
ATOM      9  H   UNL     1      96.339  86.406 108.988  1.00  0.00     0.210 HD
ENDBRANCH   7   8
ENDBRANCH   4   7
BRANCH   6  10
ATOM     10  O   UNL     1      95.128  83.675 103.130  1.00  0.00    -0.366 OA
ATOM     11  H   UNL     1      94.653  83.144 103.788  1.00  0.00     0.213 HD
ENDBRANCH   6  10
BRANCH   2  12
ATOM     12  O   UNL     1      95.611  88.357 106.076  1.00  0.00    -0.387 OA
ATOM     13  H   UNL     1      94.880  88.963 106.276  1.00  0.00     0.211 HD
ENDBRANCH   2  12
BRANCH   5  14
ATOM     14  O   UNL     1      95.246  86.225 101.691  1.00  0.00    -0.385 OA
ATOM     15  H   UNL     1      95.774  87.027 101.547  1.00  0.00     0.211 HD
ENDBRANCH   5  14
BRANCH   3  16
ATOM     16  O   UNL     1      94.572  88.526 103.366  1.00  0.00    -0.387 OA
ATOM     17  H   UNL     1      94.000  88.861 104.074  1.00  0.00     0.211 HD
ENDBRANCH   3  16
TORSDOF 6
ENDMDL
MODEL 13
REMARK VINA RESULT:    -4.465      2.639      4.196
REMARK INTER + INTRA:          -5.415
REMARK INTER:                  -5.169
REMARK INTRA:                  -0.247
REMARK UNBOUND:                -0.036
REMARK SMILES OC[C@H]1O[C@@H](O)[C@H](O)[C@@H](O)[C@@H]1O
REMARK SMILES IDX 4 1 11 2 9 3 3 4 7 5 5 6 2 7 1 8 6 10 12 12 8 14 10 16
REMARK H PARENT 1 9 6 11 12 13 8 15 10 17
ROOT
ATOM      1  O   UNL     1      95.147  86.631 103.976  1.00  0.00    -0.342 OA
ATOM      2  C   UNL     1      94.922  85.782 106.248  1.00  0.00     0.177 C 
ATOM      3  C   UNL     1      94.633  87.209 106.750  1.00  0.00     0.179 C 
ATOM      4  C   UNL     1      95.789  85.837 104.987  1.00  0.00     0.178 C 
ATOM      5  C   UNL     1      94.091  88.104 105.624  1.00  0.00     0.201 C 
ATOM      6  C   UNL     1      94.994  87.988 104.375  1.00  0.00     0.279 C 
ENDROOT
BRANCH   4   7
ATOM      7  C   UNL     1      96.020  84.439 104.403  1.00  0.00     0.191 C 
BRANCH   7   8
ATOM      8  O   UNL     1      97.121  83.819 105.070  1.00  0.00    -0.394 OA
ATOM      9  H   UNL     1      96.927  82.879 105.208  1.00  0.00     0.210 HD
ENDBRANCH   7   8
ENDBRANCH   4   7
BRANCH   6  10
ATOM     10  O   UNL     1      94.457  88.702 103.272  1.00  0.00    -0.366 OA
ATOM     11  H   UNL     1      94.633  88.212 102.453  1.00  0.00     0.213 HD
ENDBRANCH   6  10
BRANCH   2  12
ATOM     12  O   UNL     1      95.555  84.993 107.257  1.00  0.00    -0.387 OA
ATOM     13  H   UNL     1      94.972  84.259 107.506  1.00  0.00     0.211 HD
ENDBRANCH   2  12
BRANCH   5  14
ATOM     14  O   UNL     1      93.979  89.465 106.061  1.00  0.00    -0.385 OA
ATOM     15  H   UNL     1      93.294  89.530 106.745  1.00  0.00     0.211 HD
ENDBRANCH   5  14
BRANCH   3  16
ATOM     16  O   UNL     1      93.723  87.170 107.857  1.00  0.00    -0.387 OA
ATOM     17  H   UNL     1      94.129  87.604 108.624  1.00  0.00     0.211 HD
ENDBRANCH   3  16
TORSDOF 6
ENDMDL
MODEL 14
REMARK VINA RESULT:    -4.463      6.220      8.140
REMARK INTER + INTRA:          -5.412
REMARK INTER:                  -5.166
REMARK INTRA:                  -0.246
REMARK UNBOUND:                -0.036
REMARK SMILES OC[C@H]1O[C@@H](O)[C@H](O)[C@@H](O)[C@@H]1O
REMARK SMILES IDX 4 1 11 2 9 3 3 4 7 5 5 6 2 7 1 8 6 10 12 12 8 14 10 16
REMARK H PARENT 1 9 6 11 12 13 8 15 10 17
ROOT
ATOM      1  O   UNL     1      96.538  87.989 108.632  1.00  0.00    -0.342 OA
ATOM      2  C   UNL     1      96.713  88.625 110.978  1.00  0.00     0.177 C 
ATOM      3  C   UNL     1      97.545  87.360 111.256  1.00  0.00     0.179 C 
ATOM      4  C   UNL     1      95.780  88.386 109.786  1.00  0.00     0.178 C 
ATOM      5  C   UNL     1      98.233  86.845 109.981  1.00  0.00     0.201 C 
ATOM      6  C   UNL     1      97.207  86.750 108.829  1.00  0.00     0.279 C 
ENDROOT
BRANCH   4   7
ATOM      7  C   UNL     1      95.004  89.655 109.419  1.00  0.00     0.191 C 
BRANCH   7   8
ATOM      8  O   UNL     1      93.833  89.751 110.232  1.00  0.00    -0.394 OA
ATOM      9  H   UNL     1      93.614  90.685 110.375  1.00  0.00     0.210 HD
ENDBRANCH   7   8
ENDBRANCH   4   7
BRANCH   6  10
ATOM     10  O   UNL     1      97.828  86.398 107.603  1.00  0.00    -0.366 OA
ATOM     11  H   UNL     1      98.291  85.552 107.705  1.00  0.00     0.213 HD
ENDBRANCH   6  10
BRANCH   2  12
ATOM     12  O   UNL     1      95.965  89.021 112.129  1.00  0.00    -0.387 OA
ATOM     13  H   UNL     1      95.628  89.921 112.000  1.00  0.00     0.211 HD
ENDBRANCH   2  12
BRANCH   5  14
ATOM     14  O   UNL     1      98.869  85.581 110.218  1.00  0.00    -0.385 OA
ATOM     15  H   UNL     1      99.659  85.507 109.660  1.00  0.00     0.211 HD
ENDBRANCH   5  14
BRANCH   3  16
ATOM     16  O   UNL     1      98.505  87.615 112.289  1.00  0.00    -0.387 OA
ATOM     17  H   UNL     1      99.034  88.393 112.054  1.00  0.00     0.211 HD
ENDBRANCH   3  16
TORSDOF 6
ENDMDL
MODEL 15
REMARK VINA RESULT:    -4.427      1.682      2.946
REMARK INTER + INTRA:          -5.369
REMARK INTER:                  -5.130
REMARK INTRA:                  -0.238
REMARK UNBOUND:                -0.036
REMARK SMILES OC[C@H]1O[C@@H](O)[C@H](O)[C@@H](O)[C@@H]1O
REMARK SMILES IDX 4 1 11 2 9 3 3 4 7 5 5 6 2 7 1 8 6 10 12 12 8 14 10 16
REMARK H PARENT 1 9 6 11 12 13 8 15 10 17
ROOT
ATOM      1  O   UNL     1      94.803  87.786 103.502  1.00  0.00    -0.342 OA
ATOM      2  C   UNL     1      95.777  85.750 104.421  1.00  0.00     0.177 C 
ATOM      3  C   UNL     1      94.751  84.909 103.640  1.00  0.00     0.179 C 
ATOM      4  C   UNL     1      95.197  87.136 104.722  1.00  0.00     0.178 C 
ATOM      5  C   UNL     1      94.211  85.670 102.417  1.00  0.00     0.201 C 
ATOM      6  C   UNL     1      93.759  87.087 102.835  1.00  0.00     0.279 C 
ENDROOT
BRANCH   4   7
ATOM      7  C   UNL     1      96.224  88.036 105.416  1.00  0.00     0.191 C 
BRANCH   7   8
ATOM      8  O   UNL     1      96.318  87.676 106.796  1.00  0.00    -0.394 OA
ATOM      9  H   UNL     1      96.709  88.410 107.296  1.00  0.00     0.210 HD
ENDBRANCH   7   8
ENDBRANCH   4   7
BRANCH   6  10
ATOM     10  O   UNL     1      93.371  87.865 101.713  1.00  0.00    -0.366 OA
ATOM     11  H   UNL     1      94.131  87.980 101.120  1.00  0.00     0.213 HD
ENDBRANCH   6  10
BRANCH   2  12
ATOM     12  O   UNL     1      96.171  85.099 105.630  1.00  0.00    -0.387 OA
ATOM     13  H   UNL     1      96.972  84.577 105.469  1.00  0.00     0.211 HD
ENDBRANCH   2  12
BRANCH   5  14
ATOM     14  O   UNL     1      93.143  84.945 101.793  1.00  0.00    -0.385 OA
ATOM     15  H   UNL     1      92.750  85.487 101.092  1.00  0.00     0.211 HD
ENDBRANCH   5  14
BRANCH   3  16
ATOM     16  O   UNL     1      95.330  83.657 103.250  1.00  0.00    -0.387 OA
ATOM     17  H   UNL     1      95.813  83.771 102.416  1.00  0.00     0.211 HD
ENDBRANCH   3  16
TORSDOF 6
ENDMDL
MODEL 16
REMARK VINA RESULT:    -4.424      5.912      7.894
REMARK INTER + INTRA:          -5.365
REMARK INTER:                  -5.135
REMARK INTRA:                  -0.230
REMARK UNBOUND:                -0.036
REMARK SMILES OC[C@H]1O[C@@H](O)[C@H](O)[C@@H](O)[C@@H]1O
REMARK SMILES IDX 4 1 11 2 9 3 3 4 7 5 5 6 2 7 1 8 6 10 12 12 8 14 10 16
REMARK H PARENT 1 9 6 11 12 13 8 15 10 17
ROOT
ATOM      1  O   UNL     1      97.050  89.295 109.435  1.00  0.00    -0.342 OA
ATOM      2  C   UNL     1      98.061  87.552 110.805  1.00  0.00     0.177 C 
ATOM      3  C   UNL     1      97.943  86.564 109.631  1.00  0.00     0.179 C 
ATOM      4  C   UNL     1      96.968  88.621 110.701  1.00  0.00     0.178 C 
ATOM      5  C   UNL     1      97.874  87.297 108.281  1.00  0.00     0.201 C 
ATOM      6  C   UNL     1      96.811  88.417 108.342  1.00  0.00     0.279 C 
ENDROOT
BRANCH   4   7
ATOM      7  C   UNL     1      97.111  89.678 111.801  1.00  0.00     0.191 C 
BRANCH   7   8
ATOM      8  O   UNL     1      98.410  89.584 112.388  1.00  0.00    -0.394 OA
ATOM      9  H   UNL     1      98.987  89.055 111.816  1.00  0.00     0.210 HD
ENDBRANCH   7   8
ENDBRANCH   4   7
BRANCH   6  10
ATOM     10  O   UNL     1      96.804  89.198 107.157  1.00  0.00    -0.366 OA
ATOM     11  H   UNL     1      95.955  89.088 106.702  1.00  0.00     0.213 HD
ENDBRANCH   6  10
BRANCH   2  12
ATOM     12  O   UNL     1      97.985  86.879 112.063  1.00  0.00    -0.387 OA
ATOM     13  H   UNL     1      98.211  85.943 111.942  1.00  0.00     0.211 HD
ENDBRANCH   2  12
BRANCH   5  14
ATOM     14  O   UNL     1      97.603  86.379 107.214  1.00  0.00    -0.385 OA
ATOM     15  H   UNL     1      97.365  85.513 107.583  1.00  0.00     0.211 HD
ENDBRANCH   5  14
BRANCH   3  16
ATOM     16  O   UNL     1      99.034  85.634 109.654  1.00  0.00    -0.387 OA
ATOM     17  H   UNL     1      99.872  86.118 109.583  1.00  0.00     0.211 HD
ENDBRANCH   3  16
TORSDOF 6
ENDMDL
MODEL 17
REMARK VINA RESULT:    -4.416      1.805      5.181
REMARK INTER + INTRA:          -5.356
REMARK INTER:                  -5.112
REMARK INTRA:                  -0.244
REMARK UNBOUND:                -0.036
REMARK SMILES OC[C@H]1O[C@@H](O)[C@H](O)[C@@H](O)[C@@H]1O
REMARK SMILES IDX 4 1 11 2 9 3 3 4 7 5 5 6 2 7 1 8 6 10 12 12 8 14 10 16
REMARK H PARENT 1 9 6 11 12 13 8 15 10 17
ROOT
ATOM      1  O   UNL     1      95.552  88.518 104.967  1.00  0.00    -0.342 OA
ATOM      2  C   UNL     1      94.636  86.262 105.049  1.00  0.00     0.177 C 
ATOM      3  C   UNL     1      95.761  85.843 106.014  1.00  0.00     0.179 C 
ATOM      4  C   UNL     1      95.113  87.414 104.159  1.00  0.00     0.178 C 
ATOM      5  C   UNL     1      96.337  87.054 106.767  1.00  0.00     0.201 C 
ATOM      6  C   UNL     1      96.678  88.183 105.769  1.00  0.00     0.279 C 
ENDROOT
BRANCH   4   7
ATOM      7  C   UNL     1      93.990  87.921 103.249  1.00  0.00     0.191 C 
BRANCH   7   8
ATOM      8  O   UNL     1      93.972  87.157 102.041  1.00  0.00    -0.394 OA
ATOM      9  H   UNL     1      93.300  86.462 102.108  1.00  0.00     0.210 HD
ENDBRANCH   7   8
ENDBRANCH   4   7
BRANCH   6  10
ATOM     10  O   UNL     1      97.095  89.364 106.437  1.00  0.00    -0.366 OA
ATOM     11  H   UNL     1      96.343  89.969 106.526  1.00  0.00     0.213 HD
ENDBRANCH   6  10
BRANCH   2  12
ATOM     12  O   UNL     1      94.199  85.160 104.251  1.00  0.00    -0.387 OA
ATOM     13  H   UNL     1      93.692  84.544 104.803  1.00  0.00     0.211 HD
ENDBRANCH   2  12
BRANCH   5  14
ATOM     14  O   UNL     1      97.486  86.677 107.539  1.00  0.00    -0.385 OA
ATOM     15  H   UNL     1      97.656  87.350 108.216  1.00  0.00     0.211 HD
ENDBRANCH   5  14
BRANCH   3  16
ATOM     16  O   UNL     1      95.283  84.850 106.931  1.00  0.00    -0.387 OA
ATOM     17  H   UNL     1      95.110  85.262 107.792  1.00  0.00     0.211 HD
ENDBRANCH   3  16
TORSDOF 6
ENDMDL
MODEL 18
REMARK VINA RESULT:    -4.413      2.206      4.210
REMARK INTER + INTRA:          -5.352
REMARK INTER:                  -5.103
REMARK INTRA:                  -0.248
REMARK UNBOUND:                -0.036
REMARK SMILES OC[C@H]1O[C@@H](O)[C@H](O)[C@@H](O)[C@@H]1O
REMARK SMILES IDX 4 1 11 2 9 3 3 4 7 5 5 6 2 7 1 8 6 10 12 12 8 14 10 16
REMARK H PARENT 1 9 6 11 12 13 8 15 10 17
ROOT
ATOM      1  O   UNL     1      95.962  88.618 105.081  1.00  0.00    -0.342 OA
ATOM      2  C   UNL     1      96.741  86.778 106.475  1.00  0.00     0.177 C 
ATOM      3  C   UNL     1      95.720  85.841 105.804  1.00  0.00     0.179 C 
ATOM      4  C   UNL     1      96.231  88.222 106.435  1.00  0.00     0.178 C 
ATOM      5  C   UNL     1      95.314  86.352 104.412  1.00  0.00     0.201 C 
ATOM      6  C   UNL     1      94.924  87.845 104.491  1.00  0.00     0.279 C 
ENDROOT
BRANCH   4   7
ATOM      7  C   UNL     1      97.263  89.198 107.009  1.00  0.00     0.191 C 
BRANCH   7   8
ATOM      8  O   UNL     1      98.562  88.605 106.955  1.00  0.00    -0.394 OA
ATOM      9  H   UNL     1      98.694  88.193 106.088  1.00  0.00     0.210 HD
ENDBRANCH   7   8
ENDBRANCH   4   7
BRANCH   6  10
ATOM     10  O   UNL     1      94.663  88.387 103.205  1.00  0.00    -0.366 OA
ATOM     11  H   UNL     1      95.130  89.232 103.109  1.00  0.00     0.213 HD
ENDBRANCH   6  10
BRANCH   2  12
ATOM     12  O   UNL     1      97.011  86.378 107.819  1.00  0.00    -0.387 OA
ATOM     13  H   UNL     1      97.500  87.082 108.273  1.00  0.00     0.211 HD
ENDBRANCH   2  12
BRANCH   5  14
ATOM     14  O   UNL     1      94.247  85.563 103.868  1.00  0.00    -0.385 OA
ATOM     15  H   UNL     1      93.530  85.495 104.519  1.00  0.00     0.211 HD
ENDBRANCH   5  14
BRANCH   3  16
ATOM     16  O   UNL     1      96.244  84.509 105.728  1.00  0.00    -0.387 OA
ATOM     17  H   UNL     1      96.137  84.171 104.825  1.00  0.00     0.211 HD
ENDBRANCH   3  16
TORSDOF 6
ENDMDL
MODEL 19
REMARK VINA RESULT:    -4.364      1.586      4.383
REMARK INTER + INTRA:          -5.294
REMARK INTER:                  -5.057
REMARK INTRA:                  -0.237
REMARK UNBOUND:                -0.036
REMARK SMILES OC[C@H]1O[C@@H](O)[C@H](O)[C@@H](O)[C@@H]1O
REMARK SMILES IDX 4 1 11 2 9 3 3 4 7 5 5 6 2 7 1 8 6 10 12 12 8 14 10 16
REMARK H PARENT 1 9 6 11 12 13 8 15 10 17
ROOT
ATOM      1  O   UNL     1      93.516  87.391 103.437  1.00  0.00    -0.342 OA
ATOM      2  C   UNL     1      94.323  85.123 103.812  1.00  0.00     0.177 C 
ATOM      3  C   UNL     1      95.485  85.678 104.656  1.00  0.00     0.179 C 
ATOM      4  C   UNL     1      93.881  86.166 102.780  1.00  0.00     0.178 C 
ATOM      5  C   UNL     1      95.151  87.064 105.232  1.00  0.00     0.201 C 
ATOM      6  C   UNL     1      94.617  87.986 104.113  1.00  0.00     0.279 C 
ENDROOT
BRANCH   4   7
ATOM      7  C   UNL     1      92.664  85.685 101.983  1.00  0.00     0.191 C 
BRANCH   7   8
ATOM      8  O   UNL     1      91.803  84.927 102.835  1.00  0.00    -0.394 OA
ATOM      9  H   UNL     1      90.921  84.873 102.438  1.00  0.00     0.210 HD
ENDBRANCH   7   8
ENDBRANCH   4   7
BRANCH   6  10
ATOM     10  O   UNL     1      94.179  89.235 104.627  1.00  0.00    -0.366 OA
ATOM     11  H   UNL     1      94.902  89.653 105.121  1.00  0.00     0.213 HD
ENDBRANCH   6  10
BRANCH   2  12
ATOM     12  O   UNL     1      94.687  83.902 103.165  1.00  0.00    -0.387 OA
ATOM     13  H   UNL     1      95.063  83.290 103.818  1.00  0.00     0.211 HD
ENDBRANCH   2  12
BRANCH   5  14
ATOM     14  O   UNL     1      96.294  87.638 105.879  1.00  0.00    -0.385 OA
ATOM     15  H   UNL     1      96.691  88.309 105.300  1.00  0.00     0.211 HD
ENDBRANCH   5  14
BRANCH   3  16
ATOM     16  O   UNL     1      95.822  84.757 105.701  1.00  0.00    -0.387 OA
ATOM     17  H   UNL     1      95.549  83.862 105.444  1.00  0.00     0.211 HD
ENDBRANCH   3  16
TORSDOF 6
ENDMDL
MODEL 20
REMARK VINA RESULT:    -4.304      2.039      4.412
REMARK INTER + INTRA:          -5.221
REMARK INTER:                  -4.967
REMARK INTRA:                  -0.254
REMARK UNBOUND:                -0.036
REMARK SMILES OC[C@H]1O[C@@H](O)[C@H](O)[C@@H](O)[C@@H]1O
REMARK SMILES IDX 4 1 11 2 9 3 3 4 7 5 5 6 2 7 1 8 6 10 12 12 8 14 10 16
REMARK H PARENT 1 9 6 11 12 13 8 15 10 17
ROOT
ATOM      1  O   UNL     1      94.440  87.092 103.478  1.00  0.00    -0.342 OA
ATOM      2  C   UNL     1      95.453  85.164 104.570  1.00  0.00     0.177 C 
ATOM      3  C   UNL     1      95.824  86.045 105.777  1.00  0.00     0.179 C 
ATOM      4  C   UNL     1      95.379  86.019 103.301  1.00  0.00     0.178 C 
ATOM      5  C   UNL     1      94.914  87.280 105.875  1.00  0.00     0.201 C 
ATOM      6  C   UNL     1      94.840  87.992 104.505  1.00  0.00     0.279 C 
ENDROOT
BRANCH   4   7
ATOM      7  C   UNL     1      94.920  85.194 102.095  1.00  0.00     0.191 C 
BRANCH   7   8
ATOM      8  O   UNL     1      94.125  84.094 102.543  1.00  0.00    -0.394 OA
ATOM      9  H   UNL     1      94.208  84.005 103.505  1.00  0.00     0.210 HD
ENDBRANCH   7   8
ENDBRANCH   4   7
BRANCH   6  10
ATOM     10  O   UNL     1      93.911  89.064 104.521  1.00  0.00    -0.366 OA
ATOM     11  H   UNL     1      94.302  89.838 104.087  1.00  0.00     0.213 HD
ENDBRANCH   6  10
BRANCH   2  12
ATOM     12  O   UNL     1      96.385  84.094 104.400  1.00  0.00    -0.387 OA
ATOM     13  H   UNL     1      96.278  83.455 105.122  1.00  0.00     0.211 HD
ENDBRANCH   2  12
BRANCH   5  14
ATOM     14  O   UNL     1      95.370  88.172 106.901  1.00  0.00    -0.385 OA
ATOM     15  H   UNL     1      94.798  88.955 106.927  1.00  0.00     0.211 HD
ENDBRANCH   5  14
BRANCH   3  16
ATOM     16  O   UNL     1      95.776  85.276 106.986  1.00  0.00    -0.387 OA
ATOM     17  H   UNL     1      94.851  85.131 107.239  1.00  0.00     0.211 HD
ENDBRANCH   3  16
TORSDOF 6
ENDMDL
