MODEL 1
REMARK VINA RESULT:    -3.921      0.000      0.000
REMARK INTER + INTRA:          -4.743
REMARK INTER:                  -4.695
REMARK INTRA:                  -0.048
REMARK UNBOUND:                -0.020
REMARK SMILES CCOC(=O)C[NH3+]
REMARK SMILES IDX 5 1 4 2 3 3 2 4 1 5 6 6 7 7
REMARK H PARENT 7 8 7 9 7 10
ROOT
ATOM      1  O   UNL     1       2.295   5.880   4.931  1.00  0.00    -0.245 OA
ATOM      2  C   UNL     1       2.277   6.113   3.729  1.00  0.00     0.361 C 
ENDROOT
BRANCH   2   3
ATOM      3  O   UNL     1       2.706   5.261   2.753  1.00  0.00    -0.462 OA
BRANCH   3   4
ATOM      4  C   UNL     1       4.004   4.682   2.943  1.00  0.00     0.229 C 
ATOM      5  C   UNL     1       4.434   3.900   1.716  1.00  0.00     0.049 C 
ENDBRANCH   3   4
ENDBRANCH   2   3
BRANCH   2   6
ATOM      6  C   UNL     1       1.684   7.369   3.093  1.00  0.00     0.383 C 
BRANCH   6   7
ATOM      7  N   UNL     1       2.222   7.592   1.741  1.00  0.00    -0.348 N 
ATOM      8  H   UNL     1       1.927   6.831   1.128  1.00  0.00     0.344 HD
ATOM      9  H   UNL     1       3.241   7.621   1.781  1.00  0.00     0.344 HD
ATOM     10  H   UNL     1       1.871   8.477   1.378  1.00  0.00     0.344 HD
ENDBRANCH   6   7
ENDBRANCH   2   6
TORSDOF 4
ENDMDL
MODEL 2
REMARK VINA RESULT:    -3.834      1.900      2.364
REMARK INTER + INTRA:          -4.638
REMARK INTER:                  -4.554
REMARK INTRA:                  -0.085
REMARK UNBOUND:                -0.020
REMARK SMILES CCOC(=O)C[NH3+]
REMARK SMILES IDX 5 1 4 2 3 3 2 4 1 5 6 6 7 7
REMARK H PARENT 7 8 7 9 7 10
ROOT
ATOM      1  O   UNL     1       2.621   8.785   3.694  1.00  0.00    -0.245 OA
ATOM      2  C   UNL     1       1.824   8.018   3.167  1.00  0.00     0.361 C 
ENDROOT
BRANCH   2   3
ATOM      3  O   UNL     1       1.493   6.779   3.635  1.00  0.00    -0.462 OA
BRANCH   3   4
ATOM      4  C   UNL     1       2.578   5.973   4.116  1.00  0.00     0.229 C 
ATOM      5  C   UNL     1       3.289   5.280   2.968  1.00  0.00     0.049 C 
ENDBRANCH   3   4
ENDBRANCH   2   3
BRANCH   2   6
ATOM      6  C   UNL     1       0.983   8.347   1.936  1.00  0.00     0.383 C 
BRANCH   6   7
ATOM      7  N   UNL     1      -0.453   8.162   2.202  1.00  0.00    -0.348 N 
ATOM      8  H   UNL     1      -0.994   8.539   1.423  1.00  0.00     0.344 HD
ATOM      9  H   UNL     1      -0.706   8.651   3.060  1.00  0.00     0.344 HD
ATOM     10  H   UNL     1      -0.654   7.168   2.305  1.00  0.00     0.344 HD
ENDBRANCH   6   7
ENDBRANCH   2   6
TORSDOF 4
ENDMDL
MODEL 3
REMARK VINA RESULT:    -3.736      6.885      7.655
REMARK INTER + INTRA:          -4.520
REMARK INTER:                  -4.459
REMARK INTRA:                  -0.060
REMARK UNBOUND:                -0.020
REMARK SMILES CCOC(=O)C[NH3+]
REMARK SMILES IDX 5 1 4 2 3 3 2 4 1 5 6 6 7 7
REMARK H PARENT 7 8 7 9 7 10
ROOT
ATOM      1  O   UNL     1       6.055   2.007  -1.690  1.00  0.00    -0.245 OA
ATOM      2  C   UNL     1       6.881   1.752  -0.821  1.00  0.00     0.361 C 
ENDROOT
BRANCH   2   3
ATOM      3  O   UNL     1       6.743   2.036   0.507  1.00  0.00    -0.462 OA
BRANCH   3   4
ATOM      4  C   UNL     1       7.933   2.453   1.192  1.00  0.00     0.229 C 
ATOM      5  C   UNL     1       7.735   2.414   2.696  1.00  0.00     0.049 C 
ENDBRANCH   3   4
ENDBRANCH   2   3
BRANCH   2   6
ATOM      6  C   UNL     1       8.179   0.983  -1.052  1.00  0.00     0.383 C 
BRANCH   6   7
ATOM      7  N   UNL     1       7.925  -0.325  -1.678  1.00  0.00    -0.348 N 
ATOM      8  H   UNL     1       8.255  -1.067  -1.061  1.00  0.00     0.344 HD
ATOM      9  H   UNL     1       8.420  -0.378  -2.569  1.00  0.00     0.344 HD
ATOM     10  H   UNL     1       6.924  -0.436  -1.838  1.00  0.00     0.344 HD
ENDBRANCH   6   7
ENDBRANCH   2   6
TORSDOF 4
ENDMDL
MODEL 4
REMARK VINA RESULT:    -3.721      6.906      8.386
REMARK INTER + INTRA:          -4.502
REMARK INTER:                  -4.463
REMARK INTRA:                  -0.039
REMARK UNBOUND:                -0.020
REMARK SMILES CCOC(=O)C[NH3+]
REMARK SMILES IDX 5 1 4 2 3 3 2 4 1 5 6 6 7 7
REMARK H PARENT 7 8 7 9 7 10
ROOT
ATOM      1  O   UNL     1       8.915   1.784  -0.802  1.00  0.00    -0.245 OA
ATOM      2  C   UNL     1       8.033   0.982  -1.087  1.00  0.00     0.361 C 
ENDROOT
BRANCH   2   3
ATOM      3  O   UNL     1       6.730   1.068  -0.692  1.00  0.00    -0.462 OA
BRANCH   3   4
ATOM      4  C   UNL     1       6.424   2.092   0.265  1.00  0.00     0.229 C 
ATOM      5  C   UNL     1       4.974   2.525   0.151  1.00  0.00     0.049 C 
ENDBRANCH   3   4
ENDBRANCH   2   3
BRANCH   2   6
ATOM      6  C   UNL     1       8.212  -0.216  -2.017  1.00  0.00     0.383 C 
BRANCH   6   7
ATOM      7  N   UNL     1       7.545  -1.415  -1.484  1.00  0.00    -0.348 N 
ATOM      8  H   UNL     1       7.787  -2.222  -2.058  1.00  0.00     0.344 HD
ATOM      9  H   UNL     1       6.534  -1.277  -1.499  1.00  0.00     0.344 HD
ATOM     10  H   UNL     1       7.852  -1.575  -0.525  1.00  0.00     0.344 HD
ENDBRANCH   6   7
ENDBRANCH   2   6
TORSDOF 4
ENDMDL
MODEL 5
REMARK VINA RESULT:    -3.713      7.107      8.211
REMARK INTER + INTRA:          -4.492
REMARK INTER:                  -4.442
REMARK INTRA:                  -0.050
REMARK UNBOUND:                -0.020
REMARK SMILES CCOC(=O)C[NH3+]
REMARK SMILES IDX 5 1 4 2 3 3 2 4 1 5 6 6 7 7
REMARK H PARENT 7 8 7 9 7 10
ROOT
ATOM      1  O   UNL     1       9.157   1.897  -0.944  1.00  0.00    -0.245 OA
ATOM      2  C   UNL     1       8.009   1.531  -0.720  1.00  0.00     0.361 C 
ENDROOT
BRANCH   2   3
ATOM      3  O   UNL     1       7.397   0.454  -1.294  1.00  0.00    -0.462 OA
BRANCH   3   4
ATOM      4  C   UNL     1       8.241  -0.424  -2.053  1.00  0.00     0.229 C 
ATOM      5  C   UNL     1       7.917  -1.877  -1.757  1.00  0.00     0.049 C 
ENDBRANCH   3   4
ENDBRANCH   2   3
BRANCH   2   6
ATOM      6  C   UNL     1       7.080   2.160   0.316  1.00  0.00     0.383 C 
BRANCH   6   7
ATOM      7  N   UNL     1       5.683   1.748   0.105  1.00  0.00    -0.348 N 
ATOM      8  H   UNL     1       5.300   1.385   0.978  1.00  0.00     0.344 HD
ATOM      9  H   UNL     1       5.646   1.021  -0.610  1.00  0.00     0.344 HD
ATOM     10  H   UNL     1       5.134   2.552  -0.198  1.00  0.00     0.344 HD
ENDBRANCH   6   7
ENDBRANCH   2   6
TORSDOF 4
ENDMDL
MODEL 6
REMARK VINA RESULT:    -3.699      5.073      6.686
REMARK INTER + INTRA:          -4.475
REMARK INTER:                  -4.370
REMARK INTRA:                  -0.105
REMARK UNBOUND:                -0.020
REMARK SMILES CCOC(=O)C[NH3+]
REMARK SMILES IDX 5 1 4 2 3 3 2 4 1 5 6 6 7 7
REMARK H PARENT 7 8 7 9 7 10
ROOT
ATOM      1  O   UNL     1       6.372   1.787  -1.753  1.00  0.00    -0.245 OA
ATOM      2  C   UNL     1       6.683   1.839  -0.569  1.00  0.00     0.361 C 
ENDROOT
BRANCH   2   3
ATOM      3  O   UNL     1       5.808   1.813   0.479  1.00  0.00    -0.462 OA
BRANCH   3   4
ATOM      4  C   UNL     1       4.710   2.733   0.411  1.00  0.00     0.229 C 
ATOM      5  C   UNL     1       4.761   3.723   1.560  1.00  0.00     0.049 C 
ENDBRANCH   3   4
ENDBRANCH   2   3
BRANCH   2   6
ATOM      6  C   UNL     1       8.116   1.851  -0.044  1.00  0.00     0.383 C 
BRANCH   6   7
ATOM      7  N   UNL     1       8.348   2.990   0.859  1.00  0.00    -0.348 N 
ATOM      8  H   UNL     1       7.488   3.531   0.951  1.00  0.00     0.344 HD
ATOM      9  H   UNL     1       9.084   3.584   0.475  1.00  0.00     0.344 HD
ATOM     10  H   UNL     1       8.633   2.645   1.775  1.00  0.00     0.344 HD
ENDBRANCH   6   7
ENDBRANCH   2   6
TORSDOF 4
ENDMDL
MODEL 7
REMARK VINA RESULT:    -3.685      5.989      6.859
REMARK INTER + INTRA:          -4.459
REMARK INTER:                  -4.400
REMARK INTRA:                  -0.059
REMARK UNBOUND:                -0.020
REMARK SMILES CCOC(=O)C[NH3+]
REMARK SMILES IDX 5 1 4 2 3 3 2 4 1 5 6 6 7 7
REMARK H PARENT 7 8 7 9 7 10
ROOT
ATOM      1  O   UNL     1       6.063   1.966  -1.762  1.00  0.00    -0.245 OA
ATOM      2  C   UNL     1       6.446   1.786  -0.612  1.00  0.00     0.361 C 
ENDROOT
BRANCH   2   3
ATOM      3  O   UNL     1       7.674   1.309  -0.255  1.00  0.00    -0.462 OA
BRANCH   3   4
ATOM      4  C   UNL     1       8.805   1.977  -0.832  1.00  0.00     0.229 C 
ATOM      5  C   UNL     1       9.460   2.903   0.177  1.00  0.00     0.049 C 
ENDBRANCH   3   4
ENDBRANCH   2   3
BRANCH   2   6
ATOM      6  C   UNL     1       5.651   2.149   0.639  1.00  0.00     0.383 C 
BRANCH   6   7
ATOM      7  N   UNL     1       4.473   2.969   0.308  1.00  0.00    -0.348 N 
ATOM      8  H   UNL     1       3.707   2.732   0.938  1.00  0.00     0.344 HD
ATOM      9  H   UNL     1       4.191   2.784  -0.655  1.00  0.00     0.344 HD
ATOM     10  H   UNL     1       4.706   3.956   0.411  1.00  0.00     0.344 HD
ENDBRANCH   6   7
ENDBRANCH   2   6
TORSDOF 4
ENDMDL
MODEL 8
REMARK VINA RESULT:    -3.609      1.611      2.289
REMARK INTER + INTRA:          -4.367
REMARK INTER:                  -4.305
REMARK INTRA:                  -0.062
REMARK UNBOUND:                -0.020
REMARK SMILES CCOC(=O)C[NH3+]
REMARK SMILES IDX 5 1 4 2 3 3 2 4 1 5 6 6 7 7
REMARK H PARENT 7 8 7 9 7 10
ROOT
ATOM      1  O   UNL     1       2.808   5.334   2.688  1.00  0.00    -0.245 OA
ATOM      2  C   UNL     1       2.398   6.196   3.456  1.00  0.00     0.361 C 
ENDROOT
BRANCH   2   3
ATOM      3  O   UNL     1       2.618   6.222   4.803  1.00  0.00    -0.462 OA
BRANCH   3   4
ATOM      4  C   UNL     1       3.775   5.513   5.270  1.00  0.00     0.229 C 
ATOM      5  C   UNL     1       4.993   6.418   5.294  1.00  0.00     0.049 C 
ENDBRANCH   3   4
ENDBRANCH   2   3
BRANCH   2   6
ATOM      6  C   UNL     1       1.642   7.453   3.033  1.00  0.00     0.383 C 
BRANCH   6   7
ATOM      7  N   UNL     1       1.801   7.715   1.593  1.00  0.00    -0.348 N 
ATOM      8  H   UNL     1       2.366   8.554   1.461  1.00  0.00     0.344 HD
ATOM      9  H   UNL     1       0.883   7.853   1.169  1.00  0.00     0.344 HD
ATOM     10  H   UNL     1       2.263   6.921   1.152  1.00  0.00     0.344 HD
ENDBRANCH   6   7
ENDBRANCH   2   6
TORSDOF 4
ENDMDL
MODEL 9
REMARK VINA RESULT:    -3.587      9.166      9.917
REMARK INTER + INTRA:          -4.340
REMARK INTER:                  -4.321
REMARK INTRA:                  -0.019
REMARK UNBOUND:                -0.020
REMARK SMILES CCOC(=O)C[NH3+]
REMARK SMILES IDX 5 1 4 2 3 3 2 4 1 5 6 6 7 7
REMARK H PARENT 7 8 7 9 7 10
ROOT
ATOM      1  O   UNL     1       7.046  -0.141  -3.135  1.00  0.00    -0.245 OA
ATOM      2  C   UNL     1       7.850  -0.518  -2.291  1.00  0.00     0.361 C 
ENDROOT
BRANCH   2   3
ATOM      3  O   UNL     1       8.728   0.286  -1.623  1.00  0.00    -0.462 OA
BRANCH   3   4
ATOM      4  C   UNL     1       8.156   1.386  -0.901  1.00  0.00     0.229 C 
ATOM      5  C   UNL     1       9.210   2.431  -0.582  1.00  0.00     0.049 C 
ENDBRANCH   3   4
ENDBRANCH   2   3
BRANCH   2   6
ATOM      6  C   UNL     1       7.954  -1.947  -1.763  1.00  0.00     0.383 C 
BRANCH   6   7
ATOM      7  N   UNL     1       7.051  -2.855  -2.489  1.00  0.00    -0.348 N 
ATOM      8  H   UNL     1       6.977  -3.737  -1.982  1.00  0.00     0.344 HD
ATOM      9  H   UNL     1       7.423  -3.030  -3.423  1.00  0.00     0.344 HD
ATOM     10  H   UNL     1       6.129  -2.427  -2.565  1.00  0.00     0.344 HD
ENDBRANCH   6   7
ENDBRANCH   2   6
TORSDOF 4
ENDMDL
MODEL 10
REMARK VINA RESULT:    -3.584      5.137      6.094
REMARK INTER + INTRA:          -4.337
REMARK INTER:                  -4.267
REMARK INTRA:                  -0.070
REMARK UNBOUND:                -0.020
REMARK SMILES CCOC(=O)C[NH3+]
REMARK SMILES IDX 5 1 4 2 3 3 2 4 1 5 6 6 7 7
REMARK H PARENT 7 8 7 9 7 10
ROOT
ATOM      1  O   UNL     1       4.470   2.680   0.478  1.00  0.00    -0.245 OA
ATOM      2  C   UNL     1       5.594   2.201   0.569  1.00  0.00     0.361 C 
ENDROOT
BRANCH   2   3
ATOM      3  O   UNL     1       6.170   1.360  -0.340  1.00  0.00    -0.462 OA
BRANCH   3   4
ATOM      4  C   UNL     1       7.505   1.689  -0.748  1.00  0.00     0.229 C 
ATOM      5  C   UNL     1       8.185   0.493  -1.391  1.00  0.00     0.049 C 
ENDBRANCH   3   4
ENDBRANCH   2   3
BRANCH   2   6
ATOM      6  C   UNL     1       6.595   2.530   1.674  1.00  0.00     0.383 C 
BRANCH   6   7
ATOM      7  N   UNL     1       6.607   3.971   1.976  1.00  0.00    -0.348 N 
ATOM      8  H   UNL     1       7.044   4.476   1.205  1.00  0.00     0.344 HD
ATOM      9  H   UNL     1       7.135   4.134   2.833  1.00  0.00     0.344 HD
ATOM     10  H   UNL     1       5.650   4.300   2.098  1.00  0.00     0.344 HD
ENDBRANCH   6   7
ENDBRANCH   2   6
TORSDOF 4
ENDMDL
MODEL 11
REMARK VINA RESULT:    -3.536      1.643      1.990
REMARK INTER + INTRA:          -4.279
REMARK INTER:                  -4.203
REMARK INTRA:                  -0.076
REMARK UNBOUND:                -0.020
REMARK SMILES CCOC(=O)C[NH3+]
REMARK SMILES IDX 5 1 4 2 3 3 2 4 1 5 6 6 7 7
REMARK H PARENT 7 8 7 9 7 10
ROOT
ATOM      1  O   UNL     1       2.391   7.015   1.564  1.00  0.00    -0.245 OA
ATOM      2  C   UNL     1       3.012   6.421   2.437  1.00  0.00     0.361 C 
ENDROOT
BRANCH   2   3
ATOM      3  O   UNL     1       2.979   5.073   2.653  1.00  0.00    -0.462 OA
BRANCH   3   4
ATOM      4  C   UNL     1       4.242   4.394   2.610  1.00  0.00     0.229 C 
ATOM      5  C   UNL     1       4.425   3.674   1.287  1.00  0.00     0.049 C 
ENDBRANCH   3   4
ENDBRANCH   2   3
BRANCH   2   6
ATOM      6  C   UNL     1       4.014   7.071   3.389  1.00  0.00     0.383 C 
BRANCH   6   7
ATOM      7  N   UNL     1       4.249   8.482   3.040  1.00  0.00    -0.348 N 
ATOM      8  H   UNL     1       5.213   8.730   3.265  1.00  0.00     0.344 HD
ATOM      9  H   UNL     1       3.612   9.074   3.572  1.00  0.00     0.344 HD
ATOM     10  H   UNL     1       4.086   8.616   2.043  1.00  0.00     0.344 HD
ENDBRANCH   6   7
ENDBRANCH   2   6
TORSDOF 4
ENDMDL
MODEL 12
REMARK VINA RESULT:    -3.521      4.192      4.798
REMARK INTER + INTRA:          -4.261
REMARK INTER:                  -4.162
REMARK INTRA:                  -0.099
REMARK UNBOUND:                -0.020
REMARK SMILES CCOC(=O)C[NH3+]
REMARK SMILES IDX 5 1 4 2 3 3 2 4 1 5 6 6 7 7
REMARK H PARENT 7 8 7 9 7 10
ROOT
ATOM      1  O   UNL     1       3.775   4.010   1.741  1.00  0.00    -0.245 OA
ATOM      2  C   UNL     1       4.797   3.558   1.239  1.00  0.00     0.361 C 
ENDROOT
BRANCH   2   3
ATOM      3  O   UNL     1       6.059   3.722   1.733  1.00  0.00    -0.462 OA
BRANCH   3   4
ATOM      4  C   UNL     1       6.207   3.575   3.153  1.00  0.00     0.229 C 
ATOM      5  C   UNL     1       7.026   2.342   3.488  1.00  0.00     0.049 C 
ENDBRANCH   3   4
ENDBRANCH   2   3
BRANCH   2   6
ATOM      6  C   UNL     1       4.837   2.649   0.013  1.00  0.00     0.383 C 
BRANCH   6   7
ATOM      7  N   UNL     1       5.965   1.704   0.081  1.00  0.00    -0.348 N 
ATOM      8  H   UNL     1       5.824   1.064   0.863  1.00  0.00     0.344 HD
ATOM      9  H   UNL     1       6.833   2.221   0.218  1.00  0.00     0.344 HD
ATOM     10  H   UNL     1       6.016   1.175  -0.788  1.00  0.00     0.344 HD
ENDBRANCH   6   7
ENDBRANCH   2   6
TORSDOF 4
ENDMDL
MODEL 13
REMARK VINA RESULT:    -3.517      4.535      5.555
REMARK INTER + INTRA:          -4.257
REMARK INTER:                  -4.212
REMARK INTRA:                  -0.045
REMARK UNBOUND:                -0.020
REMARK SMILES CCOC(=O)C[NH3+]
REMARK SMILES IDX 5 1 4 2 3 3 2 4 1 5 6 6 7 7
REMARK H PARENT 7 8 7 9 7 10
ROOT
ATOM      1  O   UNL     1       6.385   2.230   2.076  1.00  0.00    -0.245 OA
ATOM      2  C   UNL     1       5.803   2.256   0.998  1.00  0.00     0.361 C 
ENDROOT
BRANCH   2   3
ATOM      3  O   UNL     1       6.047   1.418  -0.051  1.00  0.00    -0.462 OA
BRANCH   3   4
ATOM      4  C   UNL     1       6.983   1.886  -1.032  1.00  0.00     0.229 C 
ATOM      5  C   UNL     1       8.397   1.467  -0.674  1.00  0.00     0.049 C 
ENDBRANCH   3   4
ENDBRANCH   2   3
BRANCH   2   6
ATOM      6  C   UNL     1       4.631   3.175   0.663  1.00  0.00     0.383 C 
BRANCH   6   7
ATOM      7  N   UNL     1       4.186   3.932   1.845  1.00  0.00    -0.348 N 
ATOM      8  H   UNL     1       4.288   3.351   2.678  1.00  0.00     0.344 HD
ATOM      9  H   UNL     1       3.208   4.196   1.732  1.00  0.00     0.344 HD
ATOM     10  H   UNL     1       4.756   4.771   1.945  1.00  0.00     0.344 HD
ENDBRANCH   6   7
ENDBRANCH   2   6
TORSDOF 4
ENDMDL
MODEL 14
REMARK VINA RESULT:    -3.475      5.373      6.685
REMARK INTER + INTRA:          -4.206
REMARK INTER:                  -4.145
REMARK INTRA:                  -0.061
REMARK UNBOUND:                -0.020
REMARK SMILES CCOC(=O)C[NH3+]
REMARK SMILES IDX 5 1 4 2 3 3 2 4 1 5 6 6 7 7
REMARK H PARENT 7 8 7 9 7 10
ROOT
ATOM      1  O   UNL     1       7.782   2.406   1.059  1.00  0.00    -0.245 OA
ATOM      2  C   UNL     1       6.893   1.994   0.324  1.00  0.00     0.361 C 
ENDROOT
BRANCH   2   3
ATOM      3  O   UNL     1       5.588   1.821   0.684  1.00  0.00    -0.462 OA
BRANCH   3   4
ATOM      4  C   UNL     1       4.705   2.917   0.406  1.00  0.00     0.229 C 
ATOM      5  C   UNL     1       4.482   3.762   1.646  1.00  0.00     0.049 C 
ENDBRANCH   3   4
ENDBRANCH   2   3
BRANCH   2   6
ATOM      6  C   UNL     1       7.065   1.682  -1.161  1.00  0.00     0.383 C 
BRANCH   6   7
ATOM      7  N   UNL     1       7.715   0.377  -1.365  1.00  0.00    -0.348 N 
ATOM      8  H   UNL     1       7.646  -0.174  -0.509  1.00  0.00     0.344 HD
ATOM      9  H   UNL     1       8.697   0.520  -1.599  1.00  0.00     0.344 HD
ATOM     10  H   UNL     1       7.252  -0.118  -2.126  1.00  0.00     0.344 HD
ENDBRANCH   6   7
ENDBRANCH   2   6
TORSDOF 4
ENDMDL
MODEL 15
REMARK VINA RESULT:    -3.382      6.765      7.659
REMARK INTER + INTRA:          -4.093
REMARK INTER:                  -4.033
REMARK INTRA:                  -0.060
REMARK UNBOUND:                -0.020
REMARK SMILES CCOC(=O)C[NH3+]
REMARK SMILES IDX 5 1 4 2 3 3 2 4 1 5 6 6 7 7
REMARK H PARENT 7 8 7 9 7 10
ROOT
ATOM      1  O   UNL     1       9.536   2.610  -0.775  1.00  0.00    -0.245 OA
ATOM      2  C   UNL     1       8.593   2.169  -0.128  1.00  0.00     0.361 C 
ENDROOT
BRANCH   2   3
ATOM      3  O   UNL     1       8.488   2.193   1.233  1.00  0.00    -0.462 OA
BRANCH   3   4
ATOM      4  C   UNL     1       7.231   2.637   1.763  1.00  0.00     0.229 C 
ATOM      5  C   UNL     1       7.121   2.311   3.241  1.00  0.00     0.049 C 
ENDBRANCH   3   4
ENDBRANCH   2   3
BRANCH   2   6
ATOM      6  C   UNL     1       7.316   1.590  -0.733  1.00  0.00     0.383 C 
BRANCH   6   7
ATOM      7  N   UNL     1       7.590   0.353  -1.484  1.00  0.00    -0.348 N 
ATOM      8  H   UNL     1       7.345  -0.453  -0.909  1.00  0.00     0.344 HD
ATOM      9  H   UNL     1       8.580   0.313  -1.723  1.00  0.00     0.344 HD
ATOM     10  H   UNL     1       7.032   0.344  -2.337  1.00  0.00     0.344 HD
ENDBRANCH   6   7
ENDBRANCH   2   6
TORSDOF 4
ENDMDL
MODEL 16
REMARK VINA RESULT:    -3.370      2.310      3.500
REMARK INTER + INTRA:          -4.080
REMARK INTER:                  -4.014
REMARK INTRA:                  -0.065
REMARK UNBOUND:                -0.020
REMARK SMILES CCOC(=O)C[NH3+]
REMARK SMILES IDX 5 1 4 2 3 3 2 4 1 5 6 6 7 7
REMARK H PARENT 7 8 7 9 7 10
ROOT
ATOM      1  O   UNL     1       3.379   4.508   2.389  1.00  0.00    -0.245 OA
ATOM      2  C   UNL     1       3.009   5.546   2.925  1.00  0.00     0.361 C 
ENDROOT
BRANCH   2   3
ATOM      3  O   UNL     1       2.474   6.622   2.277  1.00  0.00    -0.462 OA
BRANCH   3   4
ATOM      4  C   UNL     1       1.640   7.484   3.063  1.00  0.00     0.229 C 
ATOM      5  C   UNL     1       0.885   8.461   2.180  1.00  0.00     0.049 C 
ENDBRANCH   3   4
ENDBRANCH   2   3
BRANCH   2   6
ATOM      6  C   UNL     1       2.993   5.792   4.431  1.00  0.00     0.383 C 
BRANCH   6   7
ATOM      7  N   UNL     1       4.308   5.516   5.035  1.00  0.00    -0.348 N 
ATOM      8  H   UNL     1       5.035   5.983   4.493  1.00  0.00     0.344 HD
ATOM      9  H   UNL     1       4.477   4.510   5.035  1.00  0.00     0.344 HD
ATOM     10  H   UNL     1       4.321   5.863   5.993  1.00  0.00     0.344 HD
ENDBRANCH   6   7
ENDBRANCH   2   6
TORSDOF 4
ENDMDL
MODEL 17
REMARK VINA RESULT:    -3.363      3.656      5.025
REMARK INTER + INTRA:          -4.071
REMARK INTER:                  -4.002
REMARK INTRA:                  -0.069
REMARK UNBOUND:                -0.020
REMARK SMILES CCOC(=O)C[NH3+]
REMARK SMILES IDX 5 1 4 2 3 3 2 4 1 5 6 6 7 7
REMARK H PARENT 7 8 7 9 7 10
ROOT
ATOM      1  O   UNL     1       4.885   1.730   0.278  1.00  0.00    -0.245 OA
ATOM      2  C   UNL     1       5.026   2.779   0.895  1.00  0.00     0.361 C 
ENDROOT
BRANCH   2   3
ATOM      3  O   UNL     1       4.065   3.735   1.056  1.00  0.00    -0.462 OA
BRANCH   3   4
ATOM      4  C   UNL     1       4.410   4.843   1.900  1.00  0.00     0.229 C 
ATOM      5  C   UNL     1       3.350   5.065   2.963  1.00  0.00     0.049 C 
ENDBRANCH   3   4
ENDBRANCH   2   3
BRANCH   2   6
ATOM      6  C   UNL     1       6.277   3.168   1.678  1.00  0.00     0.383 C 
BRANCH   6   7
ATOM      7  N   UNL     1       7.503   2.820   0.940  1.00  0.00    -0.348 N 
ATOM      8  H   UNL     1       8.063   2.175   1.498  1.00  0.00     0.344 HD
ATOM      9  H   UNL     1       8.041   3.666   0.755  1.00  0.00     0.344 HD
ATOM     10  H   UNL     1       7.253   2.376   0.057  1.00  0.00     0.344 HD
ENDBRANCH   6   7
ENDBRANCH   2   6
TORSDOF 4
ENDMDL
MODEL 18
REMARK VINA RESULT:    -3.362      5.225      6.082
REMARK INTER + INTRA:          -4.069
REMARK INTER:                  -3.997
REMARK INTRA:                  -0.072
REMARK UNBOUND:                -0.020
REMARK SMILES CCOC(=O)C[NH3+]
REMARK SMILES IDX 5 1 4 2 3 3 2 4 1 5 6 6 7 7
REMARK H PARENT 7 8 7 9 7 10
ROOT
ATOM      1  O   UNL     1       6.850   2.119   3.153  1.00  0.00    -0.245 OA
ATOM      2  C   UNL     1       6.849   2.682   2.065  1.00  0.00     0.361 C 
ENDROOT
BRANCH   2   3
ATOM      3  O   UNL     1       7.956   3.157   1.421  1.00  0.00    -0.462 OA
BRANCH   3   4
ATOM      4  C   UNL     1       8.921   2.177   1.015  1.00  0.00     0.229 C 
ATOM      5  C   UNL     1       9.438   2.473  -0.382  1.00  0.00     0.049 C 
ENDBRANCH   3   4
ENDBRANCH   2   3
BRANCH   2   6
ATOM      6  C   UNL     1       5.618   2.875   1.183  1.00  0.00     0.383 C 
BRANCH   6   7
ATOM      7  N   UNL     1       5.421   1.731   0.278  1.00  0.00    -0.348 N 
ATOM      8  H   UNL     1       4.602   1.898  -0.307  1.00  0.00     0.344 HD
ATOM      9  H   UNL     1       5.279   0.883   0.827  1.00  0.00     0.344 HD
ATOM     10  H   UNL     1       6.244   1.620  -0.313  1.00  0.00     0.344 HD
ENDBRANCH   6   7
ENDBRANCH   2   6
TORSDOF 4
ENDMDL
MODEL 19
REMARK VINA RESULT:    -3.358      1.371      1.371
REMARK INTER + INTRA:          -4.064
REMARK INTER:                  -4.032
REMARK INTRA:                  -0.032
REMARK UNBOUND:                -0.020
REMARK SMILES CCOC(=O)C[NH3+]
REMARK SMILES IDX 5 1 4 2 3 3 2 4 1 5 6 6 7 7
REMARK H PARENT 7 8 7 9 7 10
ROOT
ATOM      1  O   UNL     1       3.962   6.522   5.169  1.00  0.00    -0.245 OA
ATOM      2  C   UNL     1       3.435   6.553   4.064  1.00  0.00     0.361 C 
ENDROOT
BRANCH   2   3
ATOM      3  O   UNL     1       3.184   5.464   3.278  1.00  0.00    -0.462 OA
BRANCH   3   4
ATOM      4  C   UNL     1       4.275   4.552   3.093  1.00  0.00     0.229 C 
ATOM      5  C   UNL     1       4.271   3.980   1.687  1.00  0.00     0.049 C 
ENDBRANCH   3   4
ENDBRANCH   2   3
BRANCH   2   6
ATOM      6  C   UNL     1       2.878   7.808   3.398  1.00  0.00     0.383 C 
BRANCH   6   7
ATOM      7  N   UNL     1       3.956   8.724   2.990  1.00  0.00    -0.348 N 
ATOM      8  H   UNL     1       4.517   8.284   2.260  1.00  0.00     0.344 HD
ATOM      9  H   UNL     1       4.547   8.933   3.794  1.00  0.00     0.344 HD
ATOM     10  H   UNL     1       3.550   9.588   2.632  1.00  0.00     0.344 HD
ENDBRANCH   6   7
ENDBRANCH   2   6
TORSDOF 4
ENDMDL
MODEL 20
REMARK VINA RESULT:    -3.327      2.335      2.861
REMARK INTER + INTRA:          -4.027
REMARK INTER:                  -4.007
REMARK INTRA:                  -0.020
REMARK UNBOUND:                -0.020
REMARK SMILES CCOC(=O)C[NH3+]
REMARK SMILES IDX 5 1 4 2 3 3 2 4 1 5 6 6 7 7
REMARK H PARENT 7 8 7 9 7 10
ROOT
ATOM      1  O   UNL     1       3.237   5.323   2.270  1.00  0.00    -0.245 OA
ATOM      2  C   UNL     1       4.457   5.336   2.160  1.00  0.00     0.361 C 
ENDROOT
BRANCH   2   3
ATOM      3  O   UNL     1       5.207   4.364   1.563  1.00  0.00    -0.462 OA
BRANCH   3   4
ATOM      4  C   UNL     1       4.481   3.359   0.841  1.00  0.00     0.229 C 
ATOM      5  C   UNL     1       5.365   2.162   0.543  1.00  0.00     0.049 C 
ENDBRANCH   3   4
ENDBRANCH   2   3
BRANCH   2   6
ATOM      6  C   UNL     1       5.358   6.490   2.592  1.00  0.00     0.383 C 
BRANCH   6   7
ATOM      7  N   UNL     1       4.663   7.784   2.485  1.00  0.00    -0.348 N 
ATOM      8  H   UNL     1       4.282   7.888   1.545  1.00  0.00     0.344 HD
ATOM      9  H   UNL     1       5.321   8.540   2.671  1.00  0.00     0.344 HD
ATOM     10  H   UNL     1       3.904   7.818   3.165  1.00  0.00     0.344 HD
ENDBRANCH   6   7
ENDBRANCH   2   6
TORSDOF 4
ENDMDL
