MODEL 1
REMARK VINA RESULT:    -5.250      0.000      0.000
REMARK INTER + INTRA:          -6.578
REMARK INTER:                  -6.341
REMARK INTRA:                  -0.237
REMARK UNBOUND:                -0.254
REMARK SMILES OC[C@H]1O[C@@H](O)[C@H](O)[C@@H](O)[C@@H]1O
REMARK SMILES IDX 4 1 11 2 9 3 3 4 7 5 5 6 2 7 1 8 6 10 12 12 8 14 10 16
REMARK H PARENT 1 9 6 11 12 13 8 15 10 17
ROOT
ATOM      1  O   UNL     1       3.947   7.771   4.690  1.00  0.00    -0.342 OA
ATOM      2  C   UNL     1       2.994   6.850   2.645  1.00  0.00     0.177 C 
ATOM      3  C   UNL     1       3.922   5.627   2.766  1.00  0.00     0.179 C 
ATOM      4  C   UNL     1       3.641   8.065   3.317  1.00  0.00     0.178 C 
ATOM      5  C   UNL     1       4.376   5.405   4.218  1.00  0.00     0.201 C 
ATOM      6  C   UNL     1       4.907   6.728   4.814  1.00  0.00     0.279 C 
ENDROOT
BRANCH   4   7
ATOM      7  C   UNL     1       2.706   9.279   3.300  1.00  0.00     0.191 C 
BRANCH   7   8
ATOM      8  O   UNL     1       1.355   8.844   3.468  1.00  0.00    -0.394 OA
ATOM      9  H   UNL     1       0.762   9.610   3.440  1.00  0.00     0.210 HD
ENDBRANCH   7   8
ENDBRANCH   4   7
BRANCH   6  10
ATOM     10  O   UNL     1       5.219   6.595   6.192  1.00  0.00    -0.366 OA
ATOM     11  H   UNL     1       4.466   6.894   6.725  1.00  0.00     0.213 HD
ENDBRANCH   6  10
BRANCH   2  12
ATOM     12  O   UNL     1       2.687   7.137   1.280  1.00  0.00    -0.387 OA
ATOM     13  H   UNL     1       1.767   7.439   1.212  1.00  0.00     0.211 HD
ENDBRANCH   2  12
BRANCH   5  14
ATOM     14  O   UNL     1       5.363   4.367   4.293  1.00  0.00    -0.385 OA
ATOM     15  H   UNL     1       4.966   3.523   4.025  1.00  0.00     0.211 HD
ENDBRANCH   5  14
BRANCH   3  16
ATOM     16  O   UNL     1       3.273   4.459   2.248  1.00  0.00    -0.387 OA
ATOM     17  H   UNL     1       2.903   3.943   2.982  1.00  0.00     0.211 HD
ENDBRANCH   3  16
TORSDOF 6
ENDMDL
MODEL 2
REMARK VINA RESULT:    -5.165      2.755      4.887
REMARK INTER + INTRA:          -6.476
REMARK INTER:                  -6.265
REMARK INTRA:                  -0.211
REMARK UNBOUND:                -0.254
REMARK SMILES OC[C@H]1O[C@@H](O)[C@H](O)[C@@H](O)[C@@H]1O
REMARK SMILES IDX 4 1 11 2 9 3 3 4 7 5 5 6 2 7 1 8 6 10 12 12 8 14 10 16
REMARK H PARENT 1 9 6 11 12 13 8 15 10 17
ROOT
ATOM      1  O   UNL     1       6.912   3.542   2.746  1.00  0.00    -0.342 OA
ATOM      2  C   UNL     1       4.860   3.751   1.449  1.00  0.00     0.177 C 
ATOM      3  C   UNL     1       4.126   4.270   2.698  1.00  0.00     0.179 C 
ATOM      4  C   UNL     1       6.020   2.841   1.864  1.00  0.00     0.178 C 
ATOM      5  C   UNL     1       5.104   4.882   3.714  1.00  0.00     0.201 C 
ATOM      6  C   UNL     1       6.280   3.913   3.965  1.00  0.00     0.279 C 
ENDROOT
BRANCH   4   7
ATOM      7  C   UNL     1       6.834   2.380   0.651  1.00  0.00     0.191 C 
BRANCH   7   8
ATOM      8  O   UNL     1       6.058   1.464  -0.125  1.00  0.00    -0.394 OA
ATOM      9  H   UNL     1       6.123   1.699  -1.064  1.00  0.00     0.210 HD
ENDBRANCH   7   8
ENDBRANCH   4   7
BRANCH   6  10
ATOM     10  O   UNL     1       7.269   4.494   4.801  1.00  0.00    -0.366 OA
ATOM     11  H   UNL     1       6.918   4.590   5.700  1.00  0.00     0.213 HD
ENDBRANCH   6  10
BRANCH   2  12
ATOM     12  O   UNL     1       3.970   3.059   0.571  1.00  0.00    -0.387 OA
ATOM     13  H   UNL     1       3.418   3.702   0.099  1.00  0.00     0.211 HD
ENDBRANCH   2  12
BRANCH   5  14
ATOM     14  O   UNL     1       4.432   5.214   4.937  1.00  0.00    -0.385 OA
ATOM     15  H   UNL     1       3.783   5.916   4.769  1.00  0.00     0.211 HD
ENDBRANCH   5  14
BRANCH   3  16
ATOM     16  O   UNL     1       3.117   5.217   2.323  1.00  0.00    -0.387 OA
ATOM     17  H   UNL     1       2.242   4.860   2.541  1.00  0.00     0.211 HD
ENDBRANCH   3  16
TORSDOF 6
ENDMDL
MODEL 3
REMARK VINA RESULT:    -5.147      1.059      2.806
REMARK INTER + INTRA:          -6.455
REMARK INTER:                  -6.212
REMARK INTRA:                  -0.243
REMARK UNBOUND:                -0.254
REMARK SMILES OC[C@H]1O[C@@H](O)[C@H](O)[C@@H](O)[C@@H]1O
REMARK SMILES IDX 4 1 11 2 9 3 3 4 7 5 5 6 2 7 1 8 6 10 12 12 8 14 10 16
REMARK H PARENT 1 9 6 11 12 13 8 15 10 17
ROOT
ATOM      1  O   UNL     1       2.705   6.270   2.311  1.00  0.00    -0.342 OA
ATOM      2  C   UNL     1       3.898   7.934   3.632  1.00  0.00     0.177 C 
ATOM      3  C   UNL     1       4.772   6.821   4.239  1.00  0.00     0.179 C 
ATOM      4  C   UNL     1       2.535   7.364   3.226  1.00  0.00     0.178 C 
ATOM      5  C   UNL     1       4.827   5.585   3.326  1.00  0.00     0.201 C 
ATOM      6  C   UNL     1       3.398   5.178   2.903  1.00  0.00     0.279 C 
ENDROOT
BRANCH   4   7
ATOM      7  C   UNL     1       1.670   8.421   2.531  1.00  0.00     0.191 C 
BRANCH   7   8
ATOM      8  O   UNL     1       1.077   9.274   3.513  1.00  0.00    -0.394 OA
ATOM      9  H   UNL     1       0.610   8.735   4.170  1.00  0.00     0.210 HD
ENDBRANCH   7   8
ENDBRANCH   4   7
BRANCH   6  10
ATOM     10  O   UNL     1       3.413   4.118   1.959  1.00  0.00    -0.366 OA
ATOM     11  H   UNL     1       3.504   3.271   2.424  1.00  0.00     0.213 HD
ENDBRANCH   6  10
BRANCH   2  12
ATOM     12  O   UNL     1       3.735   9.023   4.542  1.00  0.00    -0.387 OA
ATOM     13  H   UNL     1       4.264   8.859   5.339  1.00  0.00     0.211 HD
ENDBRANCH   2  12
BRANCH   5  14
ATOM     14  O   UNL     1       5.508   4.501   3.973  1.00  0.00    -0.385 OA
ATOM     15  H   UNL     1       5.692   3.802   3.325  1.00  0.00     0.211 HD
ENDBRANCH   5  14
BRANCH   3  16
ATOM     16  O   UNL     1       6.090   7.317   4.509  1.00  0.00    -0.387 OA
ATOM     17  H   UNL     1       6.582   6.661   5.027  1.00  0.00     0.211 HD
ENDBRANCH   3  16
TORSDOF 6
ENDMDL
MODEL 4
REMARK VINA RESULT:    -5.120      1.406      4.406
REMARK INTER + INTRA:          -6.421
REMARK INTER:                  -6.371
REMARK INTRA:                  -0.050
REMARK UNBOUND:                -0.254
REMARK SMILES OC[C@H]1O[C@@H](O)[C@H](O)[C@@H](O)[C@@H]1O
REMARK SMILES IDX 4 1 11 2 9 3 3 4 7 5 5 6 2 7 1 8 6 10 12 12 8 14 10 16
REMARK H PARENT 1 9 6 11 12 13 8 15 10 17
ROOT
ATOM      1  O   UNL     1       3.501   5.563   1.562  1.00  0.00    -0.342 OA
ATOM      2  C   UNL     1       4.366   4.771   3.697  1.00  0.00     0.177 C 
ATOM      3  C   UNL     1       3.908   6.080   4.366  1.00  0.00     0.179 C 
ATOM      4  C   UNL     1       4.658   5.016   2.214  1.00  0.00     0.178 C 
ATOM      5  C   UNL     1       2.769   6.748   3.577  1.00  0.00     0.201 C 
ATOM      6  C   UNL     1       3.144   6.839   2.081  1.00  0.00     0.279 C 
ENDROOT
BRANCH   4   7
ATOM      7  C   UNL     1       5.026   3.715   1.492  1.00  0.00     0.191 C 
BRANCH   7   8
ATOM      8  O   UNL     1       3.875   3.200   0.821  1.00  0.00    -0.394 OA
ATOM      9  H   UNL     1       3.560   2.406   1.281  1.00  0.00     0.210 HD
ENDBRANCH   7   8
ENDBRANCH   4   7
BRANCH   6  10
ATOM     10  O   UNL     1       2.068   7.335   1.300  1.00  0.00    -0.366 OA
ATOM     11  H   UNL     1       1.893   8.258   1.539  1.00  0.00     0.213 HD
ENDBRANCH   6  10
BRANCH   2  12
ATOM     12  O   UNL     1       5.513   4.226   4.351  1.00  0.00    -0.387 OA
ATOM     13  H   UNL     1       5.848   3.473   3.840  1.00  0.00     0.211 HD
ENDBRANCH   2  12
BRANCH   5  14
ATOM     14  O   UNL     1       2.463   8.041   4.117  1.00  0.00    -0.385 OA
ATOM     15  H   UNL     1       1.611   8.346   3.764  1.00  0.00     0.211 HD
ENDBRANCH   5  14
BRANCH   3  16
ATOM     16  O   UNL     1       3.516   5.834   5.722  1.00  0.00    -0.387 OA
ATOM     17  H   UNL     1       4.306   5.678   6.263  1.00  0.00     0.211 HD
ENDBRANCH   3  16
TORSDOF 6
ENDMDL
MODEL 5
REMARK VINA RESULT:    -5.017      1.845      3.473
REMARK INTER + INTRA:          -6.298
REMARK INTER:                  -6.049
REMARK INTRA:                  -0.249
REMARK UNBOUND:                -0.254
REMARK SMILES OC[C@H]1O[C@@H](O)[C@H](O)[C@@H](O)[C@@H]1O
REMARK SMILES IDX 4 1 11 2 9 3 3 4 7 5 5 6 2 7 1 8 6 10 12 12 8 14 10 16
REMARK H PARENT 1 9 6 11 12 13 8 15 10 17
ROOT
ATOM      1  O   UNL     1       3.142   4.770   2.418  1.00  0.00    -0.342 OA
ATOM      2  C   UNL     1       4.346   6.497   3.645  1.00  0.00     0.177 C 
ATOM      3  C   UNL     1       5.679   5.813   3.293  1.00  0.00     0.179 C 
ATOM      4  C   UNL     1       3.219   5.459   3.676  1.00  0.00     0.178 C 
ATOM      5  C   UNL     1       5.554   4.948   2.028  1.00  0.00     0.201 C 
ATOM      6  C   UNL     1       4.320   4.024   2.141  1.00  0.00     0.279 C 
ENDROOT
BRANCH   4   7
ATOM      7  C   UNL     1       1.858   6.116   3.931  1.00  0.00     0.191 C 
BRANCH   7   8
ATOM      8  O   UNL     1       1.920   7.497   3.570  1.00  0.00    -0.394 OA
ATOM      9  H   UNL     1       2.550   7.955   4.148  1.00  0.00     0.210 HD
ENDBRANCH   7   8
ENDBRANCH   4   7
BRANCH   6  10
ATOM     10  O   UNL     1       4.097   3.299   0.941  1.00  0.00    -0.366 OA
ATOM     11  H   UNL     1       4.796   2.636   0.829  1.00  0.00     0.213 HD
ENDBRANCH   6  10
BRANCH   2  12
ATOM     12  O   UNL     1       4.427   7.186   4.894  1.00  0.00    -0.387 OA
ATOM     13  H   UNL     1       3.737   6.854   5.491  1.00  0.00     0.211 HD
ENDBRANCH   2  12
BRANCH   5  14
ATOM     14  O   UNL     1       6.752   4.193   1.803  1.00  0.00    -0.385 OA
ATOM     15  H   UNL     1       6.941   4.160   0.852  1.00  0.00     0.211 HD
ENDBRANCH   5  14
BRANCH   3  16
ATOM     16  O   UNL     1       6.714   6.794   3.142  1.00  0.00    -0.387 OA
ATOM     17  H   UNL     1       7.423   6.432   2.587  1.00  0.00     0.211 HD
ENDBRANCH   3  16
TORSDOF 6
ENDMDL
MODEL 6
REMARK VINA RESULT:    -4.977      2.310      3.620
REMARK INTER + INTRA:          -6.250
REMARK INTER:                  -6.003
REMARK INTRA:                  -0.246
REMARK UNBOUND:                -0.254
REMARK SMILES OC[C@H]1O[C@@H](O)[C@H](O)[C@@H](O)[C@@H]1O
REMARK SMILES IDX 4 1 11 2 9 3 3 4 7 5 5 6 2 7 1 8 6 10 12 12 8 14 10 16
REMARK H PARENT 1 9 6 11 12 13 8 15 10 17
ROOT
ATOM      1  O   UNL     1       5.925   4.000   4.233  1.00  0.00    -0.342 OA
ATOM      2  C   UNL     1       4.034   4.365   2.740  1.00  0.00     0.177 C 
ATOM      3  C   UNL     1       4.843   3.766   1.574  1.00  0.00     0.179 C 
ATOM      4  C   UNL     1       4.984   4.982   3.771  1.00  0.00     0.178 C 
ATOM      5  C   UNL     1       5.954   2.831   2.080  1.00  0.00     0.201 C 
ATOM      6  C   UNL     1       6.770   3.533   3.188  1.00  0.00     0.279 C 
ENDROOT
BRANCH   4   7
ATOM      7  C   UNL     1       4.222   5.506   4.993  1.00  0.00     0.191 C 
BRANCH   7   8
ATOM      8  O   UNL     1       3.723   6.817   4.719  1.00  0.00    -0.394 OA
ATOM      9  H   UNL     1       2.895   6.956   5.203  1.00  0.00     0.210 HD
ENDBRANCH   7   8
ENDBRANCH   4   7
BRANCH   6  10
ATOM     10  O   UNL     1       7.726   2.659   3.769  1.00  0.00    -0.366 OA
ATOM     11  H   UNL     1       7.273   2.008   4.327  1.00  0.00     0.213 HD
ENDBRANCH   6  10
BRANCH   2  12
ATOM     12  O   UNL     1       3.096   5.337   2.277  1.00  0.00    -0.387 OA
ATOM     13  H   UNL     1       3.363   5.652   1.399  1.00  0.00     0.211 HD
ENDBRANCH   2  12
BRANCH   5  14
ATOM     14  O   UNL     1       6.798   2.409   1.000  1.00  0.00    -0.385 OA
ATOM     15  H   UNL     1       7.430   3.114   0.788  1.00  0.00     0.211 HD
ENDBRANCH   5  14
BRANCH   3  16
ATOM     16  O   UNL     1       3.970   3.080   0.667  1.00  0.00    -0.387 OA
ATOM     17  H   UNL     1       4.499   2.592   0.016  1.00  0.00     0.211 HD
ENDBRANCH   3  16
TORSDOF 6
ENDMDL
MODEL 7
REMARK VINA RESULT:    -4.955      1.693      3.656
REMARK INTER + INTRA:          -6.223
REMARK INTER:                  -5.976
REMARK INTRA:                  -0.246
REMARK UNBOUND:                -0.254
REMARK SMILES OC[C@H]1O[C@@H](O)[C@H](O)[C@@H](O)[C@@H]1O
REMARK SMILES IDX 4 1 11 2 9 3 3 4 7 5 5 6 2 7 1 8 6 10 12 12 8 14 10 16
REMARK H PARENT 1 9 6 11 12 13 8 15 10 17
ROOT
ATOM      1  O   UNL     1       5.608   4.339   3.766  1.00  0.00    -0.342 OA
ATOM      2  C   UNL     1       4.599   5.943   2.235  1.00  0.00     0.177 C 
ATOM      3  C   UNL     1       4.340   6.900   3.412  1.00  0.00     0.179 C 
ATOM      4  C   UNL     1       4.622   4.495   2.733  1.00  0.00     0.178 C 
ATOM      5  C   UNL     1       5.299   6.628   4.583  1.00  0.00     0.201 C 
ATOM      6  C   UNL     1       5.309   5.119   4.917  1.00  0.00     0.279 C 
ENDROOT
BRANCH   4   7
ATOM      7  C   UNL     1       4.971   3.518   1.606  1.00  0.00     0.191 C 
BRANCH   7   8
ATOM      8  O   UNL     1       3.792   3.207   0.861  1.00  0.00    -0.394 OA
ATOM      9  H   UNL     1       3.013   3.533   1.337  1.00  0.00     0.210 HD
ENDBRANCH   7   8
ENDBRANCH   4   7
BRANCH   6  10
ATOM     10  O   UNL     1       6.276   4.809   5.909  1.00  0.00    -0.366 OA
ATOM     11  H   UNL     1       6.610   3.910   5.765  1.00  0.00     0.213 HD
ENDBRANCH   6  10
BRANCH   2  12
ATOM     12  O   UNL     1       3.620   6.104   1.207  1.00  0.00    -0.387 OA
ATOM     13  H   UNL     1       2.787   5.694   1.488  1.00  0.00     0.211 HD
ENDBRANCH   2  12
BRANCH   5  14
ATOM     14  O   UNL     1       4.944   7.413   5.729  1.00  0.00    -0.385 OA
ATOM     15  H   UNL     1       5.097   6.897   6.536  1.00  0.00     0.211 HD
ENDBRANCH   5  14
BRANCH   3  16
ATOM     16  O   UNL     1       4.439   8.262   2.975  1.00  0.00    -0.387 OA
ATOM     17  H   UNL     1       5.184   8.692   3.424  1.00  0.00     0.211 HD
ENDBRANCH   3  16
TORSDOF 6
ENDMDL
MODEL 8
REMARK VINA RESULT:    -4.894      1.131      4.248
REMARK INTER + INTRA:          -6.150
REMARK INTER:                  -5.945
REMARK INTRA:                  -0.204
REMARK UNBOUND:                -0.254
REMARK SMILES OC[C@H]1O[C@@H](O)[C@H](O)[C@@H](O)[C@@H]1O
REMARK SMILES IDX 4 1 11 2 9 3 3 4 7 5 5 6 2 7 1 8 6 10 12 12 8 14 10 16
REMARK H PARENT 1 9 6 11 12 13 8 15 10 17
ROOT
ATOM      1  O   UNL     1       4.618   4.920   3.854  1.00  0.00    -0.342 OA
ATOM      2  C   UNL     1       4.481   7.134   4.862  1.00  0.00     0.177 C 
ATOM      3  C   UNL     1       3.831   7.676   3.577  1.00  0.00     0.179 C 
ATOM      4  C   UNL     1       5.376   5.936   4.530  1.00  0.00     0.178 C 
ATOM      5  C   UNL     1       3.151   6.556   2.772  1.00  0.00     0.201 C 
ATOM      6  C   UNL     1       4.121   5.367   2.598  1.00  0.00     0.279 C 
ENDROOT
BRANCH   4   7
ATOM      7  C   UNL     1       5.967   5.309   5.797  1.00  0.00     0.191 C 
BRANCH   7   8
ATOM      8  O   UNL     1       6.912   6.209   6.380  1.00  0.00    -0.394 OA
ATOM      9  H   UNL     1       7.753   6.149   5.902  1.00  0.00     0.210 HD
ENDBRANCH   7   8
ENDBRANCH   4   7
BRANCH   6  10
ATOM     10  O   UNL     1       3.489   4.262   1.969  1.00  0.00    -0.366 OA
ATOM     11  H   UNL     1       2.614   4.123   2.363  1.00  0.00     0.213 HD
ENDBRANCH   6  10
BRANCH   2  12
ATOM     12  O   UNL     1       5.229   8.147   5.536  1.00  0.00    -0.387 OA
ATOM     13  H   UNL     1       4.619   8.788   5.934  1.00  0.00     0.211 HD
ENDBRANCH   2  12
BRANCH   5  14
ATOM     14  O   UNL     1       2.692   7.044   1.504  1.00  0.00    -0.385 OA
ATOM     15  H   UNL     1       3.192   7.840   1.263  1.00  0.00     0.211 HD
ENDBRANCH   5  14
BRANCH   3  16
ATOM     16  O   UNL     1       2.898   8.718   3.894  1.00  0.00    -0.387 OA
ATOM     17  H   UNL     1       2.859   8.834   4.856  1.00  0.00     0.211 HD
ENDBRANCH   3  16
TORSDOF 6
ENDMDL
MODEL 9
REMARK VINA RESULT:    -4.875      1.970      4.129
REMARK INTER + INTRA:          -6.127
REMARK INTER:                  -5.918
REMARK INTRA:                  -0.209
REMARK UNBOUND:                -0.254
REMARK SMILES OC[C@H]1O[C@@H](O)[C@H](O)[C@@H](O)[C@@H]1O
REMARK SMILES IDX 4 1 11 2 9 3 3 4 7 5 5 6 2 7 1 8 6 10 12 12 8 14 10 16
REMARK H PARENT 1 9 6 11 12 13 8 15 10 17
ROOT
ATOM      1  O   UNL     1       6.729   5.085   3.993  1.00  0.00    -0.342 OA
ATOM      2  C   UNL     1       5.294   6.689   5.135  1.00  0.00     0.177 C 
ATOM      3  C   UNL     1       4.148   6.352   4.164  1.00  0.00     0.179 C 
ATOM      4  C   UNL     1       6.645   6.443   4.456  1.00  0.00     0.178 C 
ATOM      5  C   UNL     1       4.324   4.954   3.548  1.00  0.00     0.201 C 
ATOM      6  C   UNL     1       5.758   4.797   2.995  1.00  0.00     0.279 C 
ENDROOT
BRANCH   4   7
ATOM      7  C   UNL     1       7.810   6.677   5.423  1.00  0.00     0.191 C 
BRANCH   7   8
ATOM      8  O   UNL     1       7.913   8.072   5.717  1.00  0.00    -0.394 OA
ATOM      9  H   UNL     1       8.730   8.425   5.332  1.00  0.00     0.210 HD
ENDBRANCH   7   8
ENDBRANCH   4   7
BRANCH   6  10
ATOM     10  O   UNL     1       5.999   3.477   2.531  1.00  0.00    -0.366 OA
ATOM     11  H   UNL     1       5.943   3.459   1.563  1.00  0.00     0.213 HD
ENDBRANCH   6  10
BRANCH   2  12
ATOM     12  O   UNL     1       5.205   8.038   5.598  1.00  0.00    -0.387 OA
ATOM     13  H   UNL     1       4.321   8.388   5.402  1.00  0.00     0.211 HD
ENDBRANCH   2  12
BRANCH   5  14
ATOM     14  O   UNL     1       3.343   4.717   2.529  1.00  0.00    -0.385 OA
ATOM     15  H   UNL     1       3.398   3.794   2.235  1.00  0.00     0.211 HD
ENDBRANCH   5  14
BRANCH   3  16
ATOM     16  O   UNL     1       2.884   6.463   4.830  1.00  0.00    -0.387 OA
ATOM     17  H   UNL     1       2.213   5.968   4.335  1.00  0.00     0.211 HD
ENDBRANCH   3  16
TORSDOF 6
ENDMDL
MODEL 10
REMARK VINA RESULT:    -4.870      2.252      4.769
REMARK INTER + INTRA:          -6.121
REMARK INTER:                  -5.880
REMARK INTRA:                  -0.241
REMARK UNBOUND:                -0.254
REMARK SMILES OC[C@H]1O[C@@H](O)[C@H](O)[C@@H](O)[C@@H]1O
REMARK SMILES IDX 4 1 11 2 9 3 3 4 7 5 5 6 2 7 1 8 6 10 12 12 8 14 10 16
REMARK H PARENT 1 9 6 11 12 13 8 15 10 17
ROOT
ATOM      1  O   UNL     1       3.546   4.262   1.969  1.00  0.00    -0.342 OA
ATOM      2  C   UNL     1       5.809   3.543   2.516  1.00  0.00     0.177 C 
ATOM      3  C   UNL     1       5.844   4.548   3.681  1.00  0.00     0.179 C 
ATOM      4  C   UNL     1       4.857   4.041   1.424  1.00  0.00     0.178 C 
ATOM      5  C   UNL     1       4.428   4.903   4.163  1.00  0.00     0.201 C 
ATOM      6  C   UNL     1       3.540   5.285   2.957  1.00  0.00     0.279 C 
ENDROOT
BRANCH   4   7
ATOM      7  C   UNL     1       4.723   3.021   0.288  1.00  0.00     0.191 C 
BRANCH   7   8
ATOM      8  O   UNL     1       5.154   1.738   0.745  1.00  0.00    -0.394 OA
ATOM      9  H   UNL     1       5.149   1.721   1.715  1.00  0.00     0.210 HD
ENDBRANCH   7   8
ENDBRANCH   4   7
BRANCH   6  10
ATOM     10  O   UNL     1       2.192   5.499   3.345  1.00  0.00    -0.366 OA
ATOM     11  H   UNL     1       1.805   6.201   2.799  1.00  0.00     0.213 HD
ENDBRANCH   6  10
BRANCH   2  12
ATOM     12  O   UNL     1       7.115   3.321   1.980  1.00  0.00    -0.387 OA
ATOM     13  H   UNL     1       7.131   2.472   1.510  1.00  0.00     0.211 HD
ENDBRANCH   2  12
BRANCH   5  14
ATOM     14  O   UNL     1       4.467   5.957   5.135  1.00  0.00    -0.385 OA
ATOM     15  H   UNL     1       3.675   5.912   5.693  1.00  0.00     0.211 HD
ENDBRANCH   5  14
BRANCH   3  16
ATOM     16  O   UNL     1       6.637   4.031   4.758  1.00  0.00    -0.387 OA
ATOM     17  H   UNL     1       6.825   4.742   5.391  1.00  0.00     0.211 HD
ENDBRANCH   3  16
TORSDOF 6
ENDMDL
MODEL 11
REMARK VINA RESULT:    -4.851      1.350      3.708
REMARK INTER + INTRA:          -6.098
REMARK INTER:                  -5.845
REMARK INTRA:                  -0.253
REMARK UNBOUND:                -0.254
REMARK SMILES OC[C@H]1O[C@@H](O)[C@H](O)[C@@H](O)[C@@H]1O
REMARK SMILES IDX 4 1 11 2 9 3 3 4 7 5 5 6 2 7 1 8 6 10 12 12 8 14 10 16
REMARK H PARENT 1 9 6 11 12 13 8 15 10 17
ROOT
ATOM      1  O   UNL     1       5.521   5.785   4.410  1.00  0.00    -0.342 OA
ATOM      2  C   UNL     1       4.287   5.248   2.378  1.00  0.00     0.177 C 
ATOM      3  C   UNL     1       3.243   6.323   2.731  1.00  0.00     0.179 C 
ATOM      4  C   UNL     1       4.936   4.710   3.658  1.00  0.00     0.178 C 
ATOM      5  C   UNL     1       3.830   7.394   3.666  1.00  0.00     0.201 C 
ATOM      6  C   UNL     1       4.546   6.720   4.857  1.00  0.00     0.279 C 
ENDROOT
BRANCH   4   7
ATOM      7  C   UNL     1       6.048   3.704   3.343  1.00  0.00     0.191 C 
BRANCH   7   8
ATOM      8  O   UNL     1       6.639   4.026   2.082  1.00  0.00    -0.394 OA
ATOM      9  H   UNL     1       7.560   3.722   2.069  1.00  0.00     0.210 HD
ENDBRANCH   7   8
ENDBRANCH   4   7
BRANCH   6  10
ATOM     10  O   UNL     1       5.208   7.671   5.677  1.00  0.00    -0.366 OA
ATOM     11  H   UNL     1       5.575   7.226   6.457  1.00  0.00     0.213 HD
ENDBRANCH   6  10
BRANCH   2  12
ATOM     12  O   UNL     1       3.704   4.183   1.626  1.00  0.00    -0.387 OA
ATOM     13  H   UNL     1       2.752   4.339   1.530  1.00  0.00     0.211 HD
ENDBRANCH   2  12
BRANCH   5  14
ATOM     14  O   UNL     1       2.809   8.296   4.115  1.00  0.00    -0.385 OA
ATOM     15  H   UNL     1       2.492   8.018   4.989  1.00  0.00     0.211 HD
ENDBRANCH   5  14
BRANCH   3  16
ATOM     16  O   UNL     1       2.721   6.918   1.536  1.00  0.00    -0.387 OA
ATOM     17  H   UNL     1       3.250   6.632   0.775  1.00  0.00     0.211 HD
ENDBRANCH   3  16
TORSDOF 6
ENDMDL
MODEL 12
REMARK VINA RESULT:    -4.785      1.696      2.202
REMARK INTER + INTRA:          -6.018
REMARK INTER:                  -5.802
REMARK INTRA:                  -0.215
REMARK UNBOUND:                -0.254
REMARK SMILES OC[C@H]1O[C@@H](O)[C@H](O)[C@@H](O)[C@@H]1O
REMARK SMILES IDX 4 1 11 2 9 3 3 4 7 5 5 6 2 7 1 8 6 10 12 12 8 14 10 16
REMARK H PARENT 1 9 6 11 12 13 8 15 10 17
ROOT
ATOM      1  O   UNL     1       3.903   7.313   4.640  1.00  0.00    -0.342 OA
ATOM      2  C   UNL     1       3.906   5.177   3.467  1.00  0.00     0.177 C 
ATOM      3  C   UNL     1       5.436   5.099   3.618  1.00  0.00     0.179 C 
ATOM      4  C   UNL     1       3.456   6.642   3.451  1.00  0.00     0.178 C 
ATOM      5  C   UNL     1       5.930   5.947   4.803  1.00  0.00     0.201 C 
ATOM      6  C   UNL     1       5.321   7.365   4.727  1.00  0.00     0.279 C 
ENDROOT
BRANCH   4   7
ATOM      7  C   UNL     1       1.929   6.759   3.397  1.00  0.00     0.191 C 
BRANCH   7   8
ATOM      8  O   UNL     1       1.344   5.768   4.243  1.00  0.00    -0.394 OA
ATOM      9  H   UNL     1       0.431   5.600   3.962  1.00  0.00     0.210 HD
ENDBRANCH   7   8
ENDBRANCH   4   7
BRANCH   6  10
ATOM     10  O   UNL     1       5.653   8.139   5.870  1.00  0.00    -0.366 OA
ATOM     11  H   UNL     1       5.132   8.957   5.869  1.00  0.00     0.213 HD
ENDBRANCH   6  10
BRANCH   2  12
ATOM     12  O   UNL     1       3.464   4.504   2.287  1.00  0.00    -0.387 OA
ATOM     13  H   UNL     1       4.108   3.820   2.046  1.00  0.00     0.211 HD
ENDBRANCH   2  12
BRANCH   5  14
ATOM     14  O   UNL     1       7.363   5.996   4.834  1.00  0.00    -0.385 OA
ATOM     15  H   UNL     1       7.650   6.831   5.237  1.00  0.00     0.211 HD
ENDBRANCH   5  14
BRANCH   3  16
ATOM     16  O   UNL     1       5.852   3.734   3.757  1.00  0.00    -0.387 OA
ATOM     17  H   UNL     1       5.071   3.159   3.773  1.00  0.00     0.211 HD
ENDBRANCH   3  16
TORSDOF 6
ENDMDL
MODEL 13
REMARK VINA RESULT:    -4.762      1.893      4.241
REMARK INTER + INTRA:          -5.991
REMARK INTER:                  -5.745
REMARK INTRA:                  -0.245
REMARK UNBOUND:                -0.254
REMARK SMILES OC[C@H]1O[C@@H](O)[C@H](O)[C@@H](O)[C@@H]1O
REMARK SMILES IDX 4 1 11 2 9 3 3 4 7 5 5 6 2 7 1 8 6 10 12 12 8 14 10 16
REMARK H PARENT 1 9 6 11 12 13 8 15 10 17
ROOT
ATOM      1  O   UNL     1       5.061   6.399   2.520  1.00  0.00    -0.342 OA
ATOM      2  C   UNL     1       4.999   5.885   4.900  1.00  0.00     0.177 C 
ATOM      3  C   UNL     1       3.511   6.276   4.943  1.00  0.00     0.179 C 
ATOM      4  C   UNL     1       5.708   6.649   3.778  1.00  0.00     0.178 C 
ATOM      5  C   UNL     1       2.855   6.157   3.557  1.00  0.00     0.201 C 
ATOM      6  C   UNL     1       3.722   6.877   2.500  1.00  0.00     0.279 C 
ENDROOT
BRANCH   4   7
ATOM      7  C   UNL     1       7.172   6.216   3.642  1.00  0.00     0.191 C 
BRANCH   7   8
ATOM      8  O   UNL     1       7.964   6.898   4.616  1.00  0.00    -0.394 OA
ATOM      9  H   UNL     1       8.664   6.308   4.935  1.00  0.00     0.210 HD
ENDBRANCH   7   8
ENDBRANCH   4   7
BRANCH   6  10
ATOM     10  O   UNL     1       3.216   6.683   1.188  1.00  0.00    -0.366 OA
ATOM     11  H   UNL     1       3.942   6.747   0.548  1.00  0.00     0.213 HD
ENDBRANCH   6  10
BRANCH   2  12
ATOM     12  O   UNL     1       5.638   6.129   6.154  1.00  0.00    -0.387 OA
ATOM     13  H   UNL     1       5.124   5.715   6.865  1.00  0.00     0.211 HD
ENDBRANCH   2  12
BRANCH   5  14
ATOM     14  O   UNL     1       1.519   6.675   3.577  1.00  0.00    -0.385 OA
ATOM     15  H   UNL     1       1.548   7.644   3.627  1.00  0.00     0.211 HD
ENDBRANCH   5  14
BRANCH   3  16
ATOM     16  O   UNL     1       2.815   5.477   5.909  1.00  0.00    -0.387 OA
ATOM     17  H   UNL     1       1.868   5.468   5.700  1.00  0.00     0.211 HD
ENDBRANCH   3  16
TORSDOF 6
ENDMDL
MODEL 14
REMARK VINA RESULT:    -4.746      2.641      5.616
REMARK INTER + INTRA:          -5.971
REMARK INTER:                  -5.719
REMARK INTRA:                  -0.252
REMARK UNBOUND:                -0.254
REMARK SMILES OC[C@H]1O[C@@H](O)[C@H](O)[C@@H](O)[C@@H]1O
REMARK SMILES IDX 4 1 11 2 9 3 3 4 7 5 5 6 2 7 1 8 6 10 12 12 8 14 10 16
REMARK H PARENT 1 9 6 11 12 13 8 15 10 17
ROOT
ATOM      1  O   UNL     1       5.780   2.768   2.031  1.00  0.00    -0.342 OA
ATOM      2  C   UNL     1       6.024   3.975   4.133  1.00  0.00     0.177 C 
ATOM      3  C   UNL     1       4.945   4.976   3.681  1.00  0.00     0.179 C 
ATOM      4  C   UNL     1       6.734   3.384   2.911  1.00  0.00     0.178 C 
ATOM      5  C   UNL     1       4.016   4.364   2.620  1.00  0.00     0.201 C 
ATOM      6  C   UNL     1       4.854   3.709   1.499  1.00  0.00     0.279 C 
ENDROOT
BRANCH   4   7
ATOM      7  C   UNL     1       7.751   2.312   3.317  1.00  0.00     0.191 C 
BRANCH   7   8
ATOM      8  O   UNL     1       7.392   1.771   4.590  1.00  0.00    -0.394 OA
ATOM      9  H   UNL     1       6.974   2.461   5.129  1.00  0.00     0.210 HD
ENDBRANCH   7   8
ENDBRANCH   4   7
BRANCH   6  10
ATOM     10  O   UNL     1       4.035   3.023   0.565  1.00  0.00    -0.366 OA
ATOM     11  H   UNL     1       4.169   3.398  -0.320  1.00  0.00     0.213 HD
ENDBRANCH   6  10
BRANCH   2  12
ATOM     12  O   UNL     1       6.968   4.589   5.013  1.00  0.00    -0.387 OA
ATOM     13  H   UNL     1       7.174   3.981   5.740  1.00  0.00     0.211 HD
ENDBRANCH   2  12
BRANCH   5  14
ATOM     14  O   UNL     1       3.122   5.352   2.091  1.00  0.00    -0.385 OA
ATOM     15  H   UNL     1       2.994   6.056   2.746  1.00  0.00     0.211 HD
ENDBRANCH   5  14
BRANCH   3  16
ATOM     16  O   UNL     1       4.196   5.442   4.811  1.00  0.00    -0.387 OA
ATOM     17  H   UNL     1       3.351   4.968   4.855  1.00  0.00     0.211 HD
ENDBRANCH   3  16
TORSDOF 6
ENDMDL
MODEL 15
REMARK VINA RESULT:    -4.734      3.254      5.425
REMARK INTER + INTRA:          -5.957
REMARK INTER:                  -5.712
REMARK INTRA:                  -0.245
REMARK UNBOUND:                -0.254
REMARK SMILES OC[C@H]1O[C@@H](O)[C@H](O)[C@@H](O)[C@@H]1O
REMARK SMILES IDX 4 1 11 2 9 3 3 4 7 5 5 6 2 7 1 8 6 10 12 12 8 14 10 16
REMARK H PARENT 1 9 6 11 12 13 8 15 10 17
ROOT
ATOM      1  O   UNL     1       5.352   4.649   3.376  1.00  0.00    -0.342 OA
ATOM      2  C   UNL     1       7.085   3.149   2.550  1.00  0.00     0.177 C 
ATOM      3  C   UNL     1       6.081   2.542   1.554  1.00  0.00     0.179 C 
ATOM      4  C   UNL     1       6.343   3.689   3.777  1.00  0.00     0.178 C 
ATOM      5  C   UNL     1       4.932   3.516   1.245  1.00  0.00     0.201 C 
ATOM      6  C   UNL     1       4.341   4.069   2.561  1.00  0.00     0.279 C 
ENDROOT
BRANCH   4   7
ATOM      7  C   UNL     1       7.299   4.387   4.749  1.00  0.00     0.191 C 
BRANCH   7   8
ATOM      8  O   UNL     1       7.959   3.408   5.555  1.00  0.00    -0.394 OA
ATOM      9  H   UNL     1       8.861   3.704   5.750  1.00  0.00     0.210 HD
ENDBRANCH   7   8
ENDBRANCH   4   7
BRANCH   6  10
ATOM     10  O   UNL     1       3.362   5.068   2.317  1.00  0.00    -0.366 OA
ATOM     11  H   UNL     1       3.562   5.520   1.483  1.00  0.00     0.213 HD
ENDBRANCH   6  10
BRANCH   2  12
ATOM     12  O   UNL     1       8.072   2.194   2.942  1.00  0.00    -0.387 OA
ATOM     13  H   UNL     1       7.718   1.298   2.826  1.00  0.00     0.211 HD
ENDBRANCH   2  12
BRANCH   5  14
ATOM     14  O   UNL     1       3.924   2.883   0.446  1.00  0.00    -0.385 OA
ATOM     15  H   UNL     1       3.980   1.920   0.558  1.00  0.00     0.211 HD
ENDBRANCH   5  14
BRANCH   3  16
ATOM     16  O   UNL     1       6.753   2.145   0.351  1.00  0.00    -0.387 OA
ATOM     17  H   UNL     1       6.170   2.295  -0.409  1.00  0.00     0.211 HD
ENDBRANCH   3  16
TORSDOF 6
ENDMDL
MODEL 16
REMARK VINA RESULT:    -4.718      2.041      3.608
REMARK INTER + INTRA:          -5.938
REMARK INTER:                  -5.697
REMARK INTRA:                  -0.240
REMARK UNBOUND:                -0.254
REMARK SMILES OC[C@H]1O[C@@H](O)[C@H](O)[C@@H](O)[C@@H]1O
REMARK SMILES IDX 4 1 11 2 9 3 3 4 7 5 5 6 2 7 1 8 6 10 12 12 8 14 10 16
REMARK H PARENT 1 9 6 11 12 13 8 15 10 17
ROOT
ATOM      1  O   UNL     1       4.967   5.863   5.660  1.00  0.00    -0.342 OA
ATOM      2  C   UNL     1       5.467   6.744   3.444  1.00  0.00     0.177 C 
ATOM      3  C   UNL     1       4.004   6.515   3.025  1.00  0.00     0.179 C 
ATOM      4  C   UNL     1       5.860   5.748   4.540  1.00  0.00     0.178 C 
ATOM      5  C   UNL     1       3.066   6.483   4.243  1.00  0.00     0.201 C 
ATOM      6  C   UNL     1       3.629   5.524   5.317  1.00  0.00     0.279 C 
ENDROOT
BRANCH   4   7
ATOM      7  C   UNL     1       7.281   6.006   5.051  1.00  0.00     0.191 C 
BRANCH   7   8
ATOM      8  O   UNL     1       7.544   7.411   5.042  1.00  0.00    -0.394 OA
ATOM      9  H   UNL     1       6.859   7.872   5.552  1.00  0.00     0.210 HD
ENDBRANCH   7   8
ENDBRANCH   4   7
BRANCH   6  10
ATOM     10  O   UNL     1       2.858   5.561   6.508  1.00  0.00    -0.366 OA
ATOM     11  H   UNL     1       3.425   5.814   7.253  1.00  0.00     0.213 HD
ENDBRANCH   6  10
BRANCH   2  12
ATOM     12  O   UNL     1       6.352   6.635   2.328  1.00  0.00    -0.387 OA
ATOM     13  H   UNL     1       7.267   6.572   2.646  1.00  0.00     0.211 HD
ENDBRANCH   2  12
BRANCH   5  14
ATOM     14  O   UNL     1       1.737   6.109   3.856  1.00  0.00    -0.385 OA
ATOM     15  H   UNL     1       1.489   6.586   3.048  1.00  0.00     0.211 HD
ENDBRANCH   5  14
BRANCH   3  16
ATOM     16  O   UNL     1       3.593   7.520   2.089  1.00  0.00    -0.387 OA
ATOM     17  H   UNL     1       3.608   8.389   2.521  1.00  0.00     0.211 HD
ENDBRANCH   3  16
TORSDOF 6
ENDMDL
MODEL 17
REMARK VINA RESULT:    -4.632      1.563      3.862
REMARK INTER + INTRA:          -5.834
REMARK INTER:                  -5.580
REMARK INTRA:                  -0.254
REMARK UNBOUND:                -0.254
REMARK SMILES OC[C@H]1O[C@@H](O)[C@H](O)[C@@H](O)[C@@H]1O
REMARK SMILES IDX 4 1 11 2 9 3 3 4 7 5 5 6 2 7 1 8 6 10 12 12 8 14 10 16
REMARK H PARENT 1 9 6 11 12 13 8 15 10 17
ROOT
ATOM      1  O   UNL     1       2.343   6.524   4.502  1.00  0.00    -0.342 OA
ATOM      2  C   UNL     1       4.657   6.235   3.794  1.00  0.00     0.177 C 
ATOM      3  C   UNL     1       4.238   6.482   2.333  1.00  0.00     0.179 C 
ATOM      4  C   UNL     1       3.481   5.650   4.583  1.00  0.00     0.178 C 
ATOM      5  C   UNL     1       2.931   7.287   2.249  1.00  0.00     0.201 C 
ATOM      6  C   UNL     1       1.862   6.657   3.170  1.00  0.00     0.279 C 
ENDROOT
BRANCH   4   7
ATOM      7  C   UNL     1       3.830   5.479   6.065  1.00  0.00     0.191 C 
BRANCH   7   8
ATOM      8  O   UNL     1       4.839   6.423   6.431  1.00  0.00    -0.394 OA
ATOM      9  H   UNL     1       5.715   6.044   6.258  1.00  0.00     0.210 HD
ENDBRANCH   7   8
ENDBRANCH   4   7
BRANCH   6  10
ATOM     10  O   UNL     1       0.681   7.443   3.217  1.00  0.00    -0.366 OA
ATOM     11  H   UNL     1      -0.051   6.908   3.562  1.00  0.00     0.213 HD
ENDBRANCH   6  10
BRANCH   2  12
ATOM     12  O   UNL     1       5.791   5.371   3.872  1.00  0.00    -0.387 OA
ATOM     13  H   UNL     1       6.496   5.711   3.298  1.00  0.00     0.211 HD
ENDBRANCH   2  12
BRANCH   5  14
ATOM     14  O   UNL     1       2.468   7.371   0.894  1.00  0.00    -0.385 OA
ATOM     15  H   UNL     1       1.535   7.106   0.854  1.00  0.00     0.211 HD
ENDBRANCH   5  14
BRANCH   3  16
ATOM     16  O   UNL     1       5.292   7.141   1.620  1.00  0.00    -0.387 OA
ATOM     17  H   UNL     1       5.538   6.611   0.845  1.00  0.00     0.211 HD
ENDBRANCH   3  16
TORSDOF 6
ENDMDL
MODEL 18
REMARK VINA RESULT:    -4.580      2.420      4.323
REMARK INTER + INTRA:          -5.772
REMARK INTER:                  -5.728
REMARK INTRA:                  -0.044
REMARK UNBOUND:                -0.254
REMARK SMILES OC[C@H]1O[C@@H](O)[C@H](O)[C@@H](O)[C@@H]1O
REMARK SMILES IDX 4 1 11 2 9 3 3 4 7 5 5 6 2 7 1 8 6 10 12 12 8 14 10 16
REMARK H PARENT 1 9 6 11 12 13 8 15 10 17
ROOT
ATOM      1  O   UNL     1       4.490   5.500   3.915  1.00  0.00    -0.342 OA
ATOM      2  C   UNL     1       6.455   4.065   3.784  1.00  0.00     0.177 C 
ATOM      3  C   UNL     1       5.794   3.268   2.644  1.00  0.00     0.179 C 
ATOM      4  C   UNL     1       5.378   4.676   4.687  1.00  0.00     0.178 C 
ATOM      5  C   UNL     1       4.728   4.104   1.916  1.00  0.00     0.201 C 
ATOM      6  C   UNL     1       3.772   4.751   2.942  1.00  0.00     0.279 C 
ENDROOT
BRANCH   4   7
ATOM      7  C   UNL     1       5.995   5.554   5.780  1.00  0.00     0.191 C 
BRANCH   7   8
ATOM      8  O   UNL     1       5.030   6.507   6.229  1.00  0.00    -0.394 OA
ATOM      9  H   UNL     1       4.362   6.641   5.539  1.00  0.00     0.210 HD
ENDBRANCH   7   8
ENDBRANCH   4   7
BRANCH   6  10
ATOM     10  O   UNL     1       2.850   5.631   2.318  1.00  0.00    -0.366 OA
ATOM     11  H   UNL     1       2.781   5.412   1.376  1.00  0.00     0.213 HD
ENDBRANCH   6  10
BRANCH   2  12
ATOM     12  O   UNL     1       7.341   3.244   4.547  1.00  0.00    -0.387 OA
ATOM     13  H   UNL     1       6.881   2.917   5.335  1.00  0.00     0.211 HD
ENDBRANCH   2  12
BRANCH   5  14
ATOM     14  O   UNL     1       4.011   3.304   0.967  1.00  0.00    -0.385 OA
ATOM     15  H   UNL     1       4.548   2.534   0.721  1.00  0.00     0.211 HD
ENDBRANCH   5  14
BRANCH   3  16
ATOM     16  O   UNL     1       6.790   2.796   1.727  1.00  0.00    -0.387 OA
ATOM     17  H   UNL     1       7.508   3.446   1.668  1.00  0.00     0.211 HD
ENDBRANCH   3  16
TORSDOF 6
ENDMDL
MODEL 19
REMARK VINA RESULT:    -4.569      1.736      3.600
REMARK INTER + INTRA:          -5.758
REMARK INTER:                  -5.504
REMARK INTRA:                  -0.254
REMARK UNBOUND:                -0.254
REMARK SMILES OC[C@H]1O[C@@H](O)[C@H](O)[C@@H](O)[C@@H]1O
REMARK SMILES IDX 4 1 11 2 9 3 3 4 7 5 5 6 2 7 1 8 6 10 12 12 8 14 10 16
REMARK H PARENT 1 9 6 11 12 13 8 15 10 17
ROOT
ATOM      1  O   UNL     1       5.377   4.365   4.002  1.00  0.00    -0.342 OA
ATOM      2  C   UNL     1       4.430   6.601   4.199  1.00  0.00     0.177 C 
ATOM      3  C   UNL     1       5.164   6.792   5.538  1.00  0.00     0.179 C 
ATOM      4  C   UNL     1       4.151   5.113   3.962  1.00  0.00     0.178 C 
ATOM      5  C   UNL     1       6.393   5.873   5.644  1.00  0.00     0.201 C 
ATOM      6  C   UNL     1       6.001   4.424   5.279  1.00  0.00     0.279 C 
ENDROOT
BRANCH   4   7
ATOM      7  C   UNL     1       3.505   4.874   2.594  1.00  0.00     0.191 C 
BRANCH   7   8
ATOM      8  O   UNL     1       3.875   5.926   1.700  1.00  0.00    -0.394 OA
ATOM      9  H   UNL     1       4.833   6.069   1.746  1.00  0.00     0.210 HD
ENDBRANCH   7   8
ENDBRANCH   4   7
BRANCH   6  10
ATOM     10  O   UNL     1       7.134   3.569   5.243  1.00  0.00    -0.366 OA
ATOM     11  H   UNL     1       7.891   4.050   4.875  1.00  0.00     0.213 HD
ENDBRANCH   6  10
BRANCH   2  12
ATOM     12  O   UNL     1       3.214   7.351   4.160  1.00  0.00    -0.387 OA
ATOM     13  H   UNL     1       2.467   6.764   4.358  1.00  0.00     0.211 HD
ENDBRANCH   2  12
BRANCH   5  14
ATOM     14  O   UNL     1       6.972   5.942   6.954  1.00  0.00    -0.385 OA
ATOM     15  H   UNL     1       6.462   6.560   7.502  1.00  0.00     0.211 HD
ENDBRANCH   5  14
BRANCH   3  16
ATOM     16  O   UNL     1       5.536   8.166   5.709  1.00  0.00    -0.387 OA
ATOM     17  H   UNL     1       5.304   8.454   6.606  1.00  0.00     0.211 HD
ENDBRANCH   3  16
TORSDOF 6
ENDMDL
MODEL 20
REMARK VINA RESULT:    -4.543      1.687      4.974
REMARK INTER + INTRA:          -5.727
REMARK INTER:                  -5.481
REMARK INTRA:                  -0.246
REMARK UNBOUND:                -0.254
REMARK SMILES OC[C@H]1O[C@@H](O)[C@H](O)[C@@H](O)[C@@H]1O
REMARK SMILES IDX 4 1 11 2 9 3 3 4 7 5 5 6 2 7 1 8 6 10 12 12 8 14 10 16
REMARK H PARENT 1 9 6 11 12 13 8 15 10 17
ROOT
ATOM      1  O   UNL     1       4.629   4.776   4.034  1.00  0.00    -0.342 OA
ATOM      2  C   UNL     1       5.698   6.157   5.733  1.00  0.00     0.177 C 
ATOM      3  C   UNL     1       5.410   7.413   4.890  1.00  0.00     0.179 C 
ATOM      4  C   UNL     1       5.820   4.932   4.822  1.00  0.00     0.178 C 
ATOM      5  C   UNL     1       4.228   7.191   3.933  1.00  0.00     0.201 C 
ATOM      6  C   UNL     1       4.421   5.872   3.151  1.00  0.00     0.279 C 
ENDROOT
BRANCH   4   7
ATOM      7  C   UNL     1       6.013   3.647   5.633  1.00  0.00     0.191 C 
BRANCH   7   8
ATOM      8  O   UNL     1       7.393   3.500   5.975  1.00  0.00    -0.394 OA
ATOM      9  H   UNL     1       7.814   4.373   6.002  1.00  0.00     0.210 HD
ENDBRANCH   7   8
ENDBRANCH   4   7
BRANCH   6  10
ATOM     10  O   UNL     1       3.291   5.568   2.349  1.00  0.00    -0.366 OA
ATOM     11  H   UNL     1       2.643   6.286   2.417  1.00  0.00     0.213 HD
ENDBRANCH   6  10
BRANCH   2  12
ATOM     12  O   UNL     1       6.880   6.317   6.519  1.00  0.00    -0.387 OA
ATOM     13  H   UNL     1       6.636   6.588   7.419  1.00  0.00     0.211 HD
ENDBRANCH   2  12
BRANCH   5  14
ATOM     14  O   UNL     1       4.074   8.306   3.043  1.00  0.00    -0.385 OA
ATOM     15  H   UNL     1       4.852   8.371   2.468  1.00  0.00     0.211 HD
ENDBRANCH   5  14
BRANCH   3  16
ATOM     16  O   UNL     1       5.174   8.540   5.744  1.00  0.00    -0.387 OA
ATOM     17  H   UNL     1       5.755   8.486   6.518  1.00  0.00     0.211 HD
ENDBRANCH   3  16
TORSDOF 6
ENDMDL
